<?xml version="1.0"?> 
<VTKFile type="StructuredGrid" version="0.1"> 
<StructuredGrid WholeExtent="0 29 0 29 0 29"> 
<Piece Extent="0 29 0 29 0 29"> 
<PointData>
<DataArray type="Float32" Name="efield" format="ascii" NumberOfComponents="3"> 
-2.50658 -24.7199 -1.30654 -1.90093 -25.1305 -2.27659 -1.37125 -25.5411 -3.0739 -0.902991 -25.9517 -3.70098 -0.484721 -26.3624 -4.15966 -0.107358 -26.773 -4.45111 0.236417 -27.1836 -4.5758 0.552567 -27.5942 -4.53352 0.845998 -28.0049 -4.32336 1.12078 -28.4155 -3.94368 1.38033 -28.8261 -3.3921 1.62753 -29.2368 -2.66543 1.86481 -29.6474 -1.75965 2.09426 -30.058 -0.669817 2.31769 -30.4686 0.609975 2.25176 -31.7434 1.89599 1.91272 -33.8822 2.71485 1.59313 -36.021 3.07999 1.29566 -38.1598 2.96677 1.02264 -40.2986 2.34703 0.77615 -42.4374 1.18859 0.55804 -44.5763 -0.545256 0.369948 -46.7151 -2.89644 0.21334 -48.8539 -5.91291 0.0895296 -50.9927 -9.64954 -0.00030129 -53.1315 -14.1694 -0.055088 -55.2703 -19.5449 -0.073868 -57.4091 -25.8599 -0.0557693 -59.548 -33.2114 -5.24319e-14 -61.6868 -41.7125 -3.12852 -23.8098 -1.19876 -2.67599 -24.2575 -2.21566 -2.27879 -24.7006 -3.05335 -1.92656 -25.1398 -3.71477 -1.61105 -25.5755 -4.20212 -1.32557 -26.0082 -4.51688 -1.06468 -26.4383 -4.6598 -0.823869 -26.8659 -4.6309 -0.599401 -27.2914 -4.42943 -0.388137 -27.7148 -4.0539 -0.187427 -28.1365 -3.50199 0.00498216 -28.5564 -2.77055 0.191018 -28.9748 -1.85552 0.372338 -29.3917 -0.751864 0.550376 -29.8072 0.546484 0.401919 -31.1092 1.8521 -0.0531014 -33.2952 2.68878 -0.481856 -35.4766 3.07306 -0.882295 -37.6537 2.98044 -1.25261 -39.8265 2.38279 -1.59122 -41.9952 1.24785 -1.89671 -44.1598 -0.461335 -2.16782 -46.3204 -2.78715 -2.40346 -48.4771 -5.77826 -2.60262 -50.6299 -9.49064 -2.76443 -52.779 -13.9888 -2.88811 -54.9244 -19.3475 -2.97293 -57.066 -25.6532 -3.01828 -59.204 -33.0071 -3.02358 -61.3384 -41.5273 -3.81747 -22.9669 -1.09869 -3.49128 -23.4376 -2.15917 -3.20533 -23.9011 -3.0344 -2.9521 -24.3581 -3.72774 -2.72552 -24.8095 -4.24174 -2.52059 -25.2558 -4.57817 -2.3332 -25.6975 -4.73805 -2.15993 -26.1351 -4.7216 -1.99791 -26.5689 -4.52825 -1.84469 -26.9992 -4.15664 -1.69821 -27.4262 -3.60452 -1.5567 -27.8502 -2.86876 -1.41865 -28.2714 -1.94527 -1.28273 -28.6899 -0.828948 -1.14782 -29.1058 0.48645 -1.37673 -30.4238 1.81056 -1.94667 -32.6391 2.66486 -2.4849 -34.8457 3.06844 -2.98987 -37.044 2.99702 -3.46023 -39.234 2.4226 -3.8948 -41.4161 1.31296 -4.29252 -43.5902 -0.36897 -4.6525 -45.7566 -2.66587 -4.97391 -47.9154 -5.62694 -5.25606 -50.0666 -9.309 -5.49832 -52.2104 -13.7779 -5.70016 -54.3469 -19.11 -5.86108 -56.4762 -25.3947 -5.98067 -58.5983 -32.7363 -6.05857 -60.7132 -41.2581 -4.55295 -22.1704 -1.00631 -4.33279 -22.6544 -2.10708 -4.14158 -23.1294 -3.01702 -3.9738 -23.5964 -3.73985 -3.82488 -24.0562 -4.27846 -3.69108 -24.5095 -4.6349 -3.56926 -24.9569 -4.81045 -3.4568 -25.3989 -4.80552 -3.35146 -25.8358 -4.61972 -3.25136 -26.2681 -4.25178 -3.15489 -26.696 -3.69956 -3.06065 -27.1197 -2.95993 -2.96745 -27.5396 -2.02878 -2.87425 -27.9558 -0.900928 -2.78015 -28.3684 0.430015 -3.08711 -29.6928 1.77136 -3.77011 -31.922 2.64269 -4.41711 -34.1388 3.06522 -5.02697 -36.3434 3.01493 -5.59873 -38.5362 2.46404 -6.13153 -40.7173 1.38046 -6.62463 -42.8869 -0.272905 -7.0774 -45.0452 -2.53888 -7.4893 -47.1923 -5.46705 -7.85986 -49.3284 -9.11489 -8.18869 -51.4536 -13.5493 -8.47546 -53.5679 -18.8482 -8.71987 -55.6716 -25.1032 -8.92171 -57.7647 -32.4219 -9.08078 -59.8473 -40.9318 -5.32028 -21.4058 -0.921634 -5.19034 -21.8958 -2.05938 -5.08077 -22.3758 -3.00117 -4.98743 -22.8467 -3.75105 -4.90689 -23.3094 -4.31222 -4.83629 -23.7647 -4.68703 -4.77324 -24.213 -4.87695 -4.71571 -24.6549 -4.88261 -4.66198 -25.0908 -4.70376 -4.61058 -25.5211 -4.33925 -4.56024 -25.9461 -3.78701 -4.50988 -26.366 -3.04393 -4.45857 -26.7812 -2.10591 -4.40549 -27.1919 -0.967647 -4.34992 -27.5981 0.377356 -4.73229 -28.9207 1.73459 -5.52592 -31.1505 2.62207 -6.28023 -33.3644 3.06279 -6.99442 -35.5628 3.03305 -7.66784 -37.7457 2.50532 -8.29989 -39.9135 1.44768 -8.89012 -42.0664 -0.176852 -9.43811 -44.2046 -2.41118 -9.94356 -46.3282 -5.30513 -10.4062 -48.4374 -8.91668 -10.8258 -50.5323 -13.3136 -11.2023 -52.6132 -18.5751 -11.5354 -54.68 -24.7947 -11.8252 -56.7329 -32.0829 -12.0717 -58.7721 -40.5712 -6.10874 -20.6623 -0.844654 -6.05645 -21.1529 -2.01607 -6.01789 -21.6329 -2.98682 -5.98993 -22.1031 -3.7613 -5.96998 -22.5644 -4.343 -5.95585 -23.0175 -4.7345 -5.94571 -23.4628 -4.93749 -5.93798 -23.9011 -4.9528 -5.93134 -24.3325 -4.7803 -5.92465 -24.7576 -4.41897 -5.91692 -25.1767 -3.86677 -5.90732 -25.5899 -3.12067 -5.89511 -25.9977 -2.17651 -5.87967 -26.4001 -1.02894 -5.86043 -26.7974 0.328672 -6.31544 -28.111 1.70036 -7.21686 -30.3301 2.60291 -8.07645 -32.5299 3.06077 -8.8937 -34.7108 3.05058 -9.66819 -36.8731 2.54509 -10.3996 -39.0169 1.51261 -11.0876 -41.1426 -0.0837017 -11.732 -43.2503 -2.28672 -12.3328 -45.3402 -5.14641 -12.8897 -47.4124 -8.72112 -13.4029 -49.4673 -13.0792 -13.8721 -51.5048 -18.3012 -14.2976 -53.5252 -24.4822 -14.6792 -55.5285 -31.7352 -15.0173 -57.5149 -40.1953 -6.91033 -19.9319 -0.775371 -6.92552 -20.419 -1.97712 -6.94923 -20.8949 -2.97396 -6.9791 -21.3608 -3.77059 -7.01314 -21.8172 -4.37076 -7.0497 -22.2648 -4.77728 -7.08737 -22.7041 -4.99205 -7.12493 -23.1357 -5.01605 -7.16137 -23.56 -4.8493 -7.19581 -23.9772 -4.49086 -7.22749 -24.3878 -3.93878 -7.25577 -24.7919 -3.19003 -7.28008 -25.1898 -2.24045 -7.29993 -25.5818 -1.08463 -7.31492 -25.968 0.284166 -7.83976 -27.2667 1.66886 -8.84583 -29.465 2.58523 -9.80827 -31.641 3.05894 -10.7268 -33.7949 3.06697 -11.6011 -35.927 2.58236 -12.4312 -38.0376 1.5737 -13.2168 -40.127 0.00431398 -13.958 -42.1953 -2.16859 -14.6548 -44.2427 -4.99503 -15.3072 -46.2695 -8.53362 -15.9153 -48.2758 -12.8533 -16.4792 -50.2618 -18.0354 -16.9991 -52.2276 -24.1766 -17.4752 -54.1733 -31.3919 -17.9075 -56.0991 -39.8199 -7.71899 -19.2086 -0.713787 -7.79331 -19.6887 -1.94252 -7.87201 -20.1576 -2.96257 -7.95332 -20.616 -3.7789 -8.03574 -21.0646 -4.39548 -8.118 -21.5041 -4.81536 -8.19903 -21.9348 -5.0406 -8.27791 -22.3573 -5.07234 -8.35386 -22.772 -4.91071 -8.42622 -23.1791 -4.55488 -8.4944 -23.5791 -4.00295 -8.55792 -23.972 -3.25192 -8.61635 -24.3582 -2.29761 -8.66934 -24.7379 -1.13457 -8.71656 -25.1113 0.244037 -9.30841 -26.3897 1.64027 -10.4158 -28.5586 2.56909 -11.4784 -30.7022 3.05719 -12.4959 -32.8208 3.08185 -13.4685 -34.9147 2.61645 -14.3959 -36.9841 1.62982 -15.2784 -39.0293 0.085489 -16.1159 -41.0506 -2.0592 -16.9087 -43.0481 -4.85428 -17.6568 -45.0221 -8.35853 -18.3605 -46.9727 -12.6413 -19.02 -48.9001 -17.7847 -19.6355 -50.8044 -23.8866 -20.2072 -52.686 -31.064 -20.7355 -54.5448 -39.4583 -8.53013 -18.4878 -0.6599 -8.6566 -18.9582 -1.91227 -8.78417 -19.4173 -2.95263 -8.91149 -19.8657 -3.78619 -9.03744 -20.3042 -4.41714 -9.16107 -20.7332 -4.8487 -9.28157 -21.1531 -5.08311 -9.39825 -21.5645 -5.12163 -9.51054 -21.9676 -4.96451 -9.61792 -22.3627 -4.61099 -9.71997 -22.7502 -4.05923 -9.81634 -23.1303 -3.30625 -9.90671 -23.5031 -2.34788 -9.99081 -23.869 -1.17862 -10.0684 -24.228 0.208474 -10.7245 -25.4816 1.61476 -11.9298 -27.6135 2.55459 -13.0896 -29.7173 3.05547 -14.2037 -31.7933 3.09501 -15.2723 -33.8418 2.64687 -16.2956 -35.8631 1.68012 -17.2736 -37.8575 0.158532 -18.2065 -39.8251 -1.96043 -19.0946 -41.7663 -4.72674 -19.9381 -43.6812 -8.19931 -20.7373 -45.5701 -12.4478 -21.4924 -47.433 -17.5549 -22.2038 -49.2703 -23.6196 -22.8717 -51.0821 -30.7604 -23.4966 -52.8685 -39.1213 -9.34019 -17.7659 -0.613712 -9.51296 -18.2242 -1.88636 -9.68418 -18.6712 -2.94414 -9.85285 -19.1075 -3.79247 -10.0181 -19.5337 -4.43573 -10.1794 -19.9502 -4.87731 -10.3359 -20.3575 -5.11957 -10.4873 -20.7559 -5.1639 -10.6331 -21.1457 -5.01066 -10.7729 -21.5272 -4.65914 -10.9064 -21.9007 -4.10756 -11.0335 -22.2664 -3.35296 -11.1538 -22.6244 -2.39116 -11.2672 -22.9751 -1.21662 -11.3735 -23.3185 0.177651 -12.0911 -24.5432 1.59253 -13.3908 -26.6314 2.54186 -14.6447 -28.6889 3.05383 -15.8527 -30.716 3.10633 -17.0152 -32.713 2.67328 -18.1322 -34.6802 1.72401 -19.2041 -36.6178 0.222477 -20.231 -38.5262 -1.87369 -21.2134 -40.4055 -4.61441 -22.1514 -42.256 -8.05865 -23.0454 -44.078 -12.2763 -23.8957 -45.8716 -17.3506 -24.7027 -47.6371 -23.3812 -25.4668 -49.3746 -30.4883 -26.1883 -51.0843 -38.8177 -10.1465 -17.0402 -0.575222 -10.3606 -17.4843 -1.86477 -10.571 -17.9171 -2.93707 -10.7769 -18.3393 -3.79772 -10.9779 -18.7514 -4.45124 -11.1734 -19.1536 -4.90116 -11.363 -19.5465 -5.14997 -11.5463 -19.9303 -5.19915 -11.7231 -20.3053 -5.04914 -11.893 -20.6717 -4.6993 -12.0559 -21.0298 -4.14789 -12.2117 -21.3798 -3.39197 -12.3601 -21.7219 -2.42736 -12.5011 -22.0561 -1.24848 -12.6346 -22.3828 0.151722 -13.411 -23.5752 1.57373 -14.8016 -25.6137 2.53102 -16.1464 -27.6191 3.05232 -17.4455 -29.5916 3.11575 -18.6993 -31.5316 2.69548 -19.908 -33.4394 1.76105 -21.0718 -35.3152 0.276615 -22.1911 -37.1594 -1.80006 -23.2663 -38.9722 -4.51882 -24.2976 -40.7538 -7.93866 -25.2854 -42.5046 -12.1296 -26.2301 -44.2247 -17.1754 -27.1321 -45.9144 -23.1763 -27.9917 -47.5738 -30.2536 -28.8094 -49.2033 -38.5548 -10.9469 -16.3087 -0.54443 -11.198 -16.7364 -1.84751 -11.4437 -17.1532 -2.93143 -11.6835 -17.5595 -3.80193 -11.917 -17.9556 -4.46366 -12.1439 -18.342 -4.92025 -12.3638 -18.7189 -5.1743 -12.5766 -19.0866 -5.22736 -12.7821 -19.4453 -5.07995 -12.98 -19.7953 -4.73146 -13.1704 -20.1368 -4.1802 -13.3531 -20.4699 -3.42324 -13.528 -20.7948 -2.4564 -13.6951 -21.1117 -1.27408 -13.8543 -21.4206 0.130817 -14.687 -22.5773 1.55851 -16.1649 -24.5609 2.52218 -17.5974 -26.5089 3.05099 -18.9847 -28.4219 3.12325 -20.3272 -30.3001 2.71333 -21.6251 -32.1439 1.79095 -22.8788 -33.9535 0.320431 -24.0886 -35.7292 -1.74034 -25.2548 -37.4714 -4.44113 -26.378 -39.1802 -7.84095 -27.4583 -40.8561 -12.01 -28.4962 -42.4992 -17.0321 -29.4921 -44.1097 -23.0083 -30.4465 -45.6881 -30.0607 -31.3596 -47.2344 -38.3382 -11.74 -15.5698 -0.521335 -12.0245 -15.9793 -1.83457 -12.3021 -16.3781 -2.92721 -12.5726 -16.7666 -3.80509 -12.8358 -17.1452 -4.47297 -13.0914 -17.514 -4.93457 -13.3393 -17.8734 -5.19255 -13.5794 -18.2236 -5.24853 -13.8116 -18.5647 -5.10306 -14.0357 -18.897 -4.7556 -14.2518 -19.2207 -4.20446 -14.4598 -19.5357 -3.44673 -14.6597 -19.8425 -2.47823 -14.8515 -20.1409 -1.29336 -15.0352 -20.4313 0.115043 -15.9216 -21.5494 1.54698 -17.4833 -23.4731 2.51546 -19.0002 -25.3591 3.04992 -20.4727 -27.2081 3.12885 -21.9011 -29.0202 2.72676 -23.2857 -30.7958 1.81352 -24.6269 -32.5352 0.353567 -25.9252 -34.2387 -1.6951 -27.1807 -35.9067 -4.38219 -28.3939 -37.5394 -7.76671 -29.5653 -39.1372 -11.9189 -30.6951 -40.7003 -16.9229 -31.7837 -42.229 -22.8801 -32.8317 -43.7235 -29.9131 -33.8393 -45.1843 -38.1721 -12.5246 -14.8225 -0.505939 -12.8392 -15.2116 -1.82594 -13.1458 -15.5905 -2.92439 -13.4444 -15.9595 -3.8072 -13.7347 -16.3188 -4.47919 -14.0168 -16.6685 -4.94412 -14.2906 -17.0089 -5.20472 -14.556 -17.3402 -5.26264 -14.813 -17.6624 -5.11847 -15.0617 -17.9757 -4.7717 -15.3019 -18.2804 -4.22064 -15.5338 -18.5763 -3.46241 -15.7574 -18.8639 -2.49281 -15.9726 -19.143 -1.30624 -16.1796 -19.4138 0.104481 -17.1173 -20.4907 1.53925 -18.759 -22.3499 2.51093 -20.357 -24.1697 3.04918 -21.9115 -25.9505 3.13257 -23.423 -27.6926 2.73573 -24.8917 -29.3963 1.82862 -26.3181 -31.062 0.375779 -27.7025 -32.69 -1.66474 -29.0453 -34.2807 -4.34259 -30.3468 -35.8343 -7.71677 -31.6074 -37.3512 -11.8576 -32.8276 -38.8317 -16.8493 -34.0076 -40.2762 -22.7935 -35.148 -41.6848 -29.8134 -36.249 -43.058 -38.0597 -13.3 -14.066 -0.498241 -13.6419 -14.4327 -1.82163 -13.975 -14.7897 -2.92299 -14.2991 -15.1373 -3.80826 -14.6144 -15.4755 -4.48229 -14.9209 -15.8045 -4.9489 -15.2186 -16.1243 -5.21081 -15.5075 -16.4352 -5.2697 -15.7878 -16.7371 -5.12618 -16.0594 -17.0303 -4.77975 -16.3224 -17.3147 -4.22873 -16.5768 -17.5905 -3.47025 -16.8228 -17.8578 -2.50011 -17.0604 -18.1166 -1.31269 -17.2896 -18.3671 0.0991871 -18.2762 -19.4001 1.53536 -19.9942 -21.1907 2.50865 -21.6698 -22.9403 3.04879 -23.3031 -24.6491 3.13442 -24.8947 -26.3176 2.74021 -26.4448 -27.946 1.83619 -27.9537 -29.5348 0.38692 -29.4219 -31.0843 -1.6495 -30.8497 -32.5948 -4.3227 -32.2375 -34.0667 -7.69167 -33.5857 -35.5003 -11.8268 -34.8945 -36.896 -16.8123 -36.1644 -38.2541 -22.7499 -37.3957 -39.575 -29.7631 -38.5889 -40.8589 -38.003 -14.066 -13.3 -0.498241 -14.4327 -13.6419 -1.82163 -14.7897 -13.975 -2.92299 -15.1373 -14.2991 -3.80826 -15.4755 -14.6144 -4.48229 -15.8045 -14.9209 -4.9489 -16.1243 -15.2186 -5.21081 -16.4352 -15.5075 -5.2697 -16.7371 -15.7878 -5.12618 -17.0303 -16.0594 -4.77975 -17.3147 -16.3224 -4.22873 -17.5905 -16.5768 -3.47025 -17.8578 -16.8228 -2.50011 -18.1166 -17.0604 -1.31269 -18.3671 -17.2896 0.0991871 -19.4001 -18.2762 1.53536 -21.1907 -19.9942 2.50865 -22.9403 -21.6698 3.04879 -24.6491 -23.3031 3.13442 -26.3176 -24.8947 2.74021 -27.946 -26.4448 1.83619 -29.5348 -27.9537 0.38692 -31.0843 -29.4219 -1.6495 -32.5948 -30.8497 -4.3227 -34.0667 -32.2375 -7.69167 -35.5003 -33.5857 -11.8268 -36.896 -34.8945 -16.8123 -38.2541 -36.1644 -22.7499 -39.575 -37.3957 -29.7631 -40.8589 -38.5889 -38.003 -14.8225 -12.5246 -0.505939 -15.2116 -12.8392 -1.82594 -15.5905 -13.1458 -2.92439 -15.9595 -13.4444 -3.8072 -16.3188 -13.7347 -4.47919 -16.6685 -14.0168 -4.94412 -17.0089 -14.2906 -5.20472 -17.3402 -14.556 -5.26264 -17.6624 -14.813 -5.11847 -17.9757 -15.0617 -4.7717 -18.2804 -15.3019 -4.22064 -18.5763 -15.5338 -3.46241 -18.8639 -15.7574 -2.49281 -19.143 -15.9726 -1.30624 -19.4138 -16.1796 0.104481 -20.4907 -17.1173 1.53925 -22.3499 -18.759 2.51093 -24.1697 -20.357 3.04918 -25.9505 -21.9115 3.13257 -27.6926 -23.423 2.73573 -29.3963 -24.8917 1.82862 -31.062 -26.3181 0.375779 -32.69 -27.7025 -1.66474 -34.2807 -29.0453 -4.34259 -35.8343 -30.3468 -7.71677 -37.3512 -31.6074 -11.8576 -38.8317 -32.8276 -16.8493 -40.2762 -34.0076 -22.7935 -41.6848 -35.148 -29.8134 -43.058 -36.249 -38.0597 -15.5698 -11.74 -0.521335 -15.9793 -12.0245 -1.83457 -16.3781 -12.3021 -2.92721 -16.7666 -12.5726 -3.80509 -17.1452 -12.8358 -4.47297 -17.514 -13.0914 -4.93457 -17.8734 -13.3393 -5.19255 -18.2236 -13.5794 -5.24853 -18.5647 -13.8116 -5.10306 -18.897 -14.0357 -4.7556 -19.2207 -14.2518 -4.20446 -19.5357 -14.4598 -3.44673 -19.8425 -14.6597 -2.47823 -20.1409 -14.8515 -1.29336 -20.4313 -15.0352 0.115043 -21.5494 -15.9216 1.54698 -23.4731 -17.4833 2.51546 -25.3591 -19.0002 3.04992 -27.2081 -20.4727 3.12885 -29.0202 -21.9011 2.72676 -30.7958 -23.2857 1.81352 -32.5352 -24.6269 0.353567 -34.2387 -25.9252 -1.6951 -35.9067 -27.1807 -4.38219 -37.5394 -28.3939 -7.76671 -39.1372 -29.5653 -11.9189 -40.7003 -30.6951 -16.9229 -42.229 -31.7837 -22.8801 -43.7235 -32.8317 -29.9131 -45.1843 -33.8393 -38.1721 -16.3087 -10.9469 -0.54443 -16.7364 -11.198 -1.84751 -17.1532 -11.4437 -2.93143 -17.5595 -11.6835 -3.80193 -17.9556 -11.917 -4.46366 -18.342 -12.1439 -4.92025 -18.7189 -12.3638 -5.1743 -19.0866 -12.5766 -5.22736 -19.4453 -12.7821 -5.07995 -19.7953 -12.98 -4.73146 -20.1368 -13.1704 -4.1802 -20.4699 -13.3531 -3.42324 -20.7948 -13.528 -2.4564 -21.1117 -13.6951 -1.27408 -21.4206 -13.8543 0.130817 -22.5773 -14.687 1.55851 -24.5609 -16.1649 2.52218 -26.5089 -17.5974 3.05099 -28.4219 -18.9847 3.12325 -30.3001 -20.3272 2.71333 -32.1439 -21.6251 1.79095 -33.9535 -22.8788 0.320431 -35.7292 -24.0886 -1.74034 -37.4714 -25.2548 -4.44113 -39.1802 -26.378 -7.84095 -40.8561 -27.4583 -12.01 -42.4992 -28.4962 -17.0321 -44.1097 -29.4921 -23.0083 -45.6881 -30.4465 -30.0607 -47.2344 -31.3596 -38.3382 -17.0402 -10.1465 -0.575222 -17.4843 -10.3606 -1.86477 -17.9171 -10.571 -2.93707 -18.3393 -10.7769 -3.79772 -18.7514 -10.9779 -4.45124 -19.1536 -11.1734 -4.90116 -19.5465 -11.363 -5.14997 -19.9303 -11.5463 -5.19915 -20.3053 -11.7231 -5.04914 -20.6717 -11.893 -4.6993 -21.0298 -12.0559 -4.14789 -21.3798 -12.2117 -3.39197 -21.7219 -12.3601 -2.42736 -22.0561 -12.5011 -1.24848 -22.3828 -12.6346 0.151722 -23.5752 -13.411 1.57373 -25.6137 -14.8016 2.53102 -27.6191 -16.1464 3.05232 -29.5916 -17.4455 3.11575 -31.5316 -18.6993 2.69548 -33.4394 -19.908 1.76105 -35.3152 -21.0718 0.276615 -37.1594 -22.1911 -1.80006 -38.9722 -23.2663 -4.51882 -40.7538 -24.2976 -7.93866 -42.5046 -25.2854 -12.1296 -44.2247 -26.2301 -17.1754 -45.9144 -27.1321 -23.1763 -47.5738 -27.9917 -30.2536 -49.2033 -28.8094 -38.5548 -17.7659 -9.34019 -0.613712 -18.2242 -9.51296 -1.88636 -18.6712 -9.68418 -2.94414 -19.1075 -9.85285 -3.79247 -19.5337 -10.0181 -4.43573 -19.9502 -10.1794 -4.87731 -20.3575 -10.3359 -5.11957 -20.7559 -10.4873 -5.1639 -21.1457 -10.6331 -5.01066 -21.5272 -10.7729 -4.65914 -21.9007 -10.9064 -4.10756 -22.2664 -11.0335 -3.35296 -22.6244 -11.1538 -2.39116 -22.9751 -11.2672 -1.21662 -23.3185 -11.3735 0.177651 -24.5432 -12.0911 1.59253 -26.6314 -13.3908 2.54186 -28.6889 -14.6447 3.05383 -30.716 -15.8527 3.10633 -32.713 -17.0152 2.67328 -34.6802 -18.1322 1.72401 -36.6178 -19.2041 0.222477 -38.5262 -20.231 -1.87369 -40.4055 -21.2134 -4.61441 -42.256 -22.1514 -8.05865 -44.078 -23.0454 -12.2763 -45.8716 -23.8957 -17.3506 -47.6371 -24.7027 -23.3812 -49.3746 -25.4668 -30.4883 -51.0843 -26.1883 -38.8177 -18.4878 -8.53013 -0.6599 -18.9582 -8.6566 -1.91227 -19.4173 -8.78417 -2.95263 -19.8657 -8.91149 -3.78619 -20.3042 -9.03744 -4.41714 -20.7332 -9.16107 -4.8487 -21.1531 -9.28157 -5.08311 -21.5645 -9.39825 -5.12163 -21.9676 -9.51054 -4.96451 -22.3627 -9.61792 -4.61099 -22.7502 -9.71997 -4.05923 -23.1303 -9.81634 -3.30625 -23.5031 -9.90671 -2.34788 -23.869 -9.99081 -1.17862 -24.228 -10.0684 0.208474 -25.4816 -10.7245 1.61476 -27.6135 -11.9298 2.55459 -29.7173 -13.0896 3.05547 -31.7933 -14.2037 3.09501 -33.8418 -15.2723 2.64687 -35.8631 -16.2956 1.68012 -37.8575 -17.2736 0.158532 -39.8251 -18.2065 -1.96043 -41.7663 -19.0946 -4.72674 -43.6812 -19.9381 -8.19931 -45.5701 -20.7373 -12.4478 -47.433 -21.4924 -17.5549 -49.2703 -22.2038 -23.6196 -51.0821 -22.8717 -30.7604 -52.8685 -23.4966 -39.1213 -19.2086 -7.71899 -0.713787 -19.6887 -7.79331 -1.94252 -20.1576 -7.87201 -2.96257 -20.616 -7.95332 -3.7789 -21.0646 -8.03574 -4.39548 -21.5041 -8.118 -4.81536 -21.9348 -8.19903 -5.0406 -22.3573 -8.27791 -5.07234 -22.772 -8.35386 -4.91071 -23.1791 -8.42622 -4.55488 -23.5791 -8.4944 -4.00295 -23.972 -8.55792 -3.25192 -24.3582 -8.61635 -2.29761 -24.7379 -8.66934 -1.13457 -25.1113 -8.71656 0.244037 -26.3897 -9.30841 1.64027 -28.5586 -10.4158 2.56909 -30.7022 -11.4784 3.05719 -32.8208 -12.4959 3.08185 -34.9147 -13.4685 2.61645 -36.9841 -14.3959 1.62982 -39.0293 -15.2784 0.085489 -41.0506 -16.1159 -2.0592 -43.0481 -16.9087 -4.85428 -45.0221 -17.6568 -8.35853 -46.9727 -18.3605 -12.6413 -48.9001 -19.02 -17.7847 -50.8044 -19.6355 -23.8866 -52.686 -20.2072 -31.064 -54.5448 -20.7355 -39.4583 -19.9319 -6.91033 -0.775371 -20.419 -6.92552 -1.97712 -20.8949 -6.94923 -2.97396 -21.3608 -6.9791 -3.77059 -21.8172 -7.01314 -4.37076 -22.2648 -7.0497 -4.77728 -22.7041 -7.08737 -4.99205 -23.1357 -7.12493 -5.01605 -23.56 -7.16137 -4.8493 -23.9772 -7.19581 -4.49086 -24.3878 -7.22749 -3.93878 -24.7919 -7.25577 -3.19003 -25.1898 -7.28008 -2.24045 -25.5818 -7.29993 -1.08463 -25.968 -7.31492 0.284166 -27.2667 -7.83976 1.66886 -29.465 -8.84583 2.58523 -31.641 -9.80827 3.05894 -33.7949 -10.7268 3.06697 -35.927 -11.6011 2.58236 -38.0376 -12.4312 1.5737 -40.127 -13.2168 0.00431398 -42.1953 -13.958 -2.16859 -44.2427 -14.6548 -4.99503 -46.2695 -15.3072 -8.53362 -48.2758 -15.9153 -12.8533 -50.2618 -16.4792 -18.0354 -52.2276 -16.9991 -24.1766 -54.1733 -17.4752 -31.3919 -56.0991 -17.9075 -39.8199 -20.6623 -6.10874 -0.844654 -21.1529 -6.05645 -2.01607 -21.6329 -6.01789 -2.98682 -22.1031 -5.98993 -3.7613 -22.5644 -5.96998 -4.343 -23.0175 -5.95585 -4.7345 -23.4628 -5.94571 -4.93749 -23.9011 -5.93798 -4.9528 -24.3325 -5.93134 -4.7803 -24.7576 -5.92465 -4.41897 -25.1767 -5.91692 -3.86677 -25.5899 -5.90732 -3.12067 -25.9977 -5.89511 -2.17651 -26.4001 -5.87967 -1.02894 -26.7974 -5.86043 0.328672 -28.111 -6.31544 1.70036 -30.3301 -7.21686 2.60291 -32.5299 -8.07645 3.06077 -34.7108 -8.8937 3.05058 -36.8731 -9.66819 2.54509 -39.0169 -10.3996 1.51261 -41.1426 -11.0876 -0.0837017 -43.2503 -11.732 -2.28672 -45.3402 -12.3328 -5.14641 -47.4124 -12.8897 -8.72112 -49.4673 -13.4029 -13.0792 -51.5048 -13.8721 -18.3012 -53.5252 -14.2976 -24.4822 -55.5285 -14.6792 -31.7352 -57.5149 -15.0173 -40.1953 -21.4058 -5.32028 -0.921634 -21.8958 -5.19034 -2.05938 -22.3758 -5.08077 -3.00117 -22.8467 -4.98743 -3.75105 -23.3094 -4.90689 -4.31222 -23.7647 -4.83629 -4.68703 -24.213 -4.77324 -4.87695 -24.6549 -4.71571 -4.88261 -25.0908 -4.66198 -4.70376 -25.5211 -4.61058 -4.33925 -25.9461 -4.56024 -3.78701 -26.366 -4.50988 -3.04393 -26.7812 -4.45857 -2.10591 -27.1919 -4.40549 -0.967647 -27.5981 -4.34992 0.377356 -28.9207 -4.73229 1.73459 -31.1505 -5.52592 2.62207 -33.3644 -6.28023 3.06279 -35.5628 -6.99442 3.03305 -37.7457 -7.66784 2.50532 -39.9135 -8.29989 1.44768 -42.0664 -8.89012 -0.176852 -44.2046 -9.43811 -2.41118 -46.3282 -9.94356 -5.30513 -48.4374 -10.4062 -8.91668 -50.5323 -10.8258 -13.3136 -52.6132 -11.2023 -18.5751 -54.68 -11.5354 -24.7947 -56.7329 -11.8252 -32.0829 -58.7721 -12.0717 -40.5712 -22.1704 -4.55295 -1.00631 -22.6544 -4.33279 -2.10708 -23.1294 -4.14158 -3.01702 -23.5964 -3.9738 -3.73985 -24.0562 -3.82488 -4.27846 -24.5095 -3.69108 -4.6349 -24.9569 -3.56926 -4.81045 -25.3989 -3.4568 -4.80552 -25.8358 -3.35146 -4.61972 -26.2681 -3.25136 -4.25178 -26.696 -3.15489 -3.69956 -27.1197 -3.06065 -2.95993 -27.5396 -2.96745 -2.02878 -27.9558 -2.87425 -0.900928 -28.3684 -2.78015 0.430015 -29.6928 -3.08711 1.77136 -31.922 -3.77011 2.64269 -34.1388 -4.41711 3.06522 -36.3434 -5.02697 3.01493 -38.5362 -5.59873 2.46404 -40.7173 -6.13153 1.38046 -42.8869 -6.62463 -0.272905 -45.0452 -7.0774 -2.53888 -47.1923 -7.4893 -5.46705 -49.3284 -7.85986 -9.11489 -51.4536 -8.18869 -13.5493 -53.5679 -8.47546 -18.8482 -55.6716 -8.71987 -25.1032 -57.7647 -8.92171 -32.4219 -59.8473 -9.08078 -40.9318 -22.9669 -3.81747 -1.09869 -23.4376 -3.49128 -2.15917 -23.9011 -3.20533 -3.0344 -24.3581 -2.9521 -3.72774 -24.8095 -2.72552 -4.24174 -25.2558 -2.52059 -4.57817 -25.6975 -2.3332 -4.73805 -26.1351 -2.15993 -4.7216 -26.5689 -1.99791 -4.52825 -26.9992 -1.84469 -4.15664 -27.4262 -1.69821 -3.60452 -27.8502 -1.5567 -2.86876 -28.2714 -1.41865 -1.94527 -28.6899 -1.28273 -0.828948 -29.1058 -1.14782 0.48645 -30.4238 -1.37673 1.81056 -32.6391 -1.94667 2.66486 -34.8457 -2.4849 3.06844 -37.044 -2.98987 2.99702 -39.234 -3.46023 2.4226 -41.4161 -3.8948 1.31296 -43.5902 -4.29252 -0.36897 -45.7566 -4.6525 -2.66587 -47.9154 -4.97391 -5.62694 -50.0666 -5.25606 -9.309 -52.2104 -5.49832 -13.7779 -54.3469 -5.70016 -19.11 -56.4762 -5.86108 -25.3947 -58.5983 -5.98067 -32.7363 -60.7132 -6.05857 -41.2581 -23.8098 -3.12852 -1.19876 -24.2575 -2.67599 -2.21566 -24.7006 -2.27879 -3.05335 -25.1398 -1.92656 -3.71477 -25.5755 -1.61105 -4.20212 -26.0082 -1.32557 -4.51688 -26.4383 -1.06468 -4.6598 -26.8659 -0.823869 -4.6309 -27.2914 -0.599401 -4.42943 -27.7148 -0.388137 -4.0539 -28.1365 -0.187427 -3.50199 -28.5564 0.00498216 -2.77055 -28.9748 0.191018 -1.85552 -29.3917 0.372338 -0.751864 -29.8072 0.550376 0.546484 -31.1092 0.401919 1.8521 -33.2952 -0.0531014 2.68878 -35.4766 -0.481856 3.07306 -37.6537 -0.882295 2.98044 -39.8265 -1.25261 2.38279 -41.9952 -1.59122 1.24785 -44.1598 -1.89671 -0.461335 -46.3204 -2.16782 -2.78715 -48.4771 -2.40346 -5.77826 -50.6299 -2.60262 -9.49064 -52.779 -2.76443 -13.9888 -54.9244 -2.88811 -19.3475 -57.066 -2.97293 -25.6532 -59.204 -3.01828 -33.0071 -61.3384 -3.02358 -41.5273 -24.7199 -2.50658 -1.30654 -25.1305 -1.90093 -2.27659 -25.5411 -1.37125 -3.0739 -25.9517 -0.902991 -3.70098 -26.3624 -0.484721 -4.15966 -26.773 -0.107358 -4.45111 -27.1836 0.236417 -4.5758 -27.5942 0.552567 -4.53352 -28.0049 0.845998 -4.32336 -28.4155 1.12078 -3.94368 -28.8261 1.38033 -3.3921 -29.2368 1.62753 -2.66543 -29.6474 1.86481 -1.75965 -30.058 2.09426 -0.669817 -30.4686 2.31769 0.609975 -31.7434 2.25176 1.89599 -33.8822 1.91272 2.71485 -36.021 1.59313 3.07999 -38.1598 1.29566 2.96677 -40.2986 1.02264 2.34703 -42.4374 0.77615 1.18859 -44.5763 0.55804 -0.545256 -46.7151 0.369948 -2.89644 -48.8539 0.21334 -5.91291 -50.9927 0.0895296 -9.64954 -53.1315 -0.00030129 -14.1694 -55.2703 -0.055088 -19.5449 -57.4091 -0.073868 -25.8599 -59.548 -0.0557693 -33.2114 -61.6868 -4.42516e-14 -41.7125 0.423752 -20.2918 -19.156 0.560813 -21.3361 -18.7325 0.646506 -22.374 -18.3601 0.694675 -23.4046 -18.038 0.71611 -24.4271 -17.7653 0.719345 -25.4408 -17.5414 0.711213 -26.4449 -17.3658 0.697247 -27.4386 -17.2382 0.681971 -28.4214 -17.1583 0.669119 -29.3925 -17.1262 0.661791 -30.3512 -17.1419 0.66258 -31.2969 -17.2057 0.673666 -32.2288 -17.318 0.696888 -33.1462 -17.4794 0.733806 -34.0484 -17.6907 0.908859 -34.5444 -17.8501 1.1526 -34.6417 -17.9495 1.3259 -34.7328 -18.0899 1.43655 -34.8171 -18.2726 1.49138 -34.8937 -18.499 1.49641 -34.9618 -18.7709 1.45693 -35.0205 -19.0901 1.37761 -35.0688 -19.4588 1.26256 -35.1059 -19.8795 1.11546 -35.1305 -20.3551 0.939528 -35.1415 -20.8886 0.737636 -35.1376 -21.4837 0.512311 -35.1174 -22.1445 0.265781 -35.0794 -22.8754 -5.47192e-14 -35.0217 -23.6816 -0.040685 -19.3275 -19.2222 -0.0825535 -20.4235 -18.8207 -0.153687 -21.5074 -18.4656 -0.244638 -22.5789 -18.1559 -0.347909 -23.6379 -17.8909 -0.457479 -24.6839 -17.6698 -0.568459 -25.7167 -17.4922 -0.676843 -26.7358 -17.3577 -0.779323 -27.7408 -17.2662 -0.873146 -28.7312 -17.2176 -0.956006 -29.7067 -17.2119 -1.02597 -30.6667 -17.2496 -1.08139 -31.6107 -17.3311 -1.12088 -32.5381 -17.4569 -1.14327 -33.4484 -17.628 -1.02952 -34.0038 -17.759 -0.840314 -34.2084 -17.8487 -0.707856 -34.4004 -17.984 -0.625504 -34.5794 -18.1664 -0.587408 -34.745 -18.3976 -0.588404 -34.8965 -18.6797 -0.623924 -35.0332 -19.015 -0.689918 -35.1543 -19.4061 -0.78279 -35.2589 -19.8561 -0.899346 -35.3459 -20.3681 -1.03675 -35.4142 -20.9462 -1.19247 -35.4624 -21.5946 -1.36428 -35.4891 -22.3183 -1.55019 -35.4925 -23.1228 -1.74848 -35.4709 -24.0145 -0.58023 -18.4384 -19.2837 -0.772132 -19.57 -18.9044 -0.97726 -20.6856 -18.567 -1.18908 -21.7853 -18.2704 -1.40233 -22.8691 -18.0138 -1.61273 -23.937 -17.7965 -1.81678 -24.9888 -17.618 -2.01158 -26.0242 -17.4779 -2.19472 -27.0431 -17.3761 -2.36417 -28.0452 -17.3125 -2.51823 -29.03 -17.2873 -2.65548 -29.9974 -17.3007 -2.77469 -30.9468 -17.3532 -2.87484 -31.8779 -17.4456 -2.95506 -32.7903 -17.5787 -2.90251 -33.3926 -17.6811 -2.77 -33.6862 -17.758 -2.68207 -33.962 -17.8841 -2.63307 -34.2199 -18.0614 -2.61798 -34.4595 -18.2918 -2.63238 -34.6803 -18.5777 -2.67233 -34.8817 -18.9219 -2.7343 -35.0631 -19.3273 -2.81517 -35.2235 -19.7975 -2.91215 -35.3618 -20.3365 -3.02273 -35.477 -20.9487 -3.14469 -35.5675 -21.6392 -3.27602 -35.6319 -22.4138 -3.41497 -35.6683 -23.2792 -3.55996 -35.6745 -24.2429 -1.17469 -17.6042 -19.3404 -1.49436 -18.7595 -18.9832 -1.81542 -19.896 -18.6635 -2.13331 -21.0141 -18.3802 -2.44432 -22.1137 -18.1325 -2.74541 -23.195 -17.9196 -3.03407 -24.258 -17.741 -3.3082 -25.3024 -17.5965 -3.56607 -26.3282 -17.4857 -3.80619 -27.3352 -17.4087 -4.02734 -28.3232 -17.3656 -4.22848 -29.292 -17.3567 -4.40873 -30.2412 -17.3826 -4.56734 -31.1705 -17.4438 -4.70367 -32.0795 -17.5413 -4.71162 -32.7178 -17.6158 -4.63688 -33.0842 -17.6776 -4.59592 -33.4286 -17.7917 -4.58392 -33.751 -17.9604 -4.5966 -34.0512 -18.1858 -4.63016 -34.3286 -18.4706 -4.6812 -34.5829 -18.818 -4.74665 -34.8132 -19.2314 -4.82381 -35.0188 -19.7148 -4.9102 -35.1986 -20.2727 -5.00361 -35.3513 -20.9103 -5.10206 -35.4754 -21.6335 -5.20375 -35.5694 -22.449 -5.30707 -35.6311 -23.3643 -5.41054 -35.6584 -24.3881 -1.80939 -16.8103 -19.3924 -2.23924 -17.9802 -19.0567 -2.66163 -19.1294 -18.7543 -3.07338 -20.2579 -18.4842 -3.47187 -21.3661 -18.2455 -3.85494 -22.454 -18.0375 -4.2208 -23.5215 -17.8597 -4.56795 -24.5688 -17.7116 -4.89516 -25.5956 -17.5931 -5.20138 -26.602 -17.5042 -5.48573 -27.5878 -17.445 -5.74748 -28.5528 -17.4158 -5.986 -29.4968 -17.4171 -6.20078 -30.4195 -17.4496 -6.39138 -31.3208 -17.5143 -6.45863 -31.9851 -17.5618 -6.44185 -32.4099 -17.6074 -6.44925 -32.8094 -17.7079 -6.47674 -33.1836 -17.8655 -6.52067 -33.5322 -18.083 -6.57777 -33.855 -18.3631 -6.64509 -34.1513 -18.7094 -6.72 -34.4206 -19.1258 -6.80008 -34.6619 -19.6167 -6.88318 -34.8742 -20.1873 -6.96732 -35.0562 -20.8433 -7.05069 -35.2062 -21.5913 -7.13166 -35.3226 -22.439 -7.20871 -35.4032 -23.3947 -7.28043 -35.4455 -24.4685 -2.47345 -16.0457 -19.4397 -2.99927 -17.2233 -19.1244 -3.51098 -18.3783 -18.8387 -4.00635 -19.5111 -18.5814 -4.48354 -20.6218 -18.3517 -4.94103 -21.7105 -18.1489 -5.37756 -22.7772 -17.9723 -5.79209 -23.8221 -17.8215 -6.18375 -24.845 -17.6965 -6.55182 -25.846 -17.5971 -6.8957 -26.825 -17.5234 -7.2149 -27.7818 -17.4759 -7.50899 -28.7163 -17.4549 -7.77764 -29.6283 -17.4613 -8.02058 -30.5177 -17.4959 -8.14556 -31.1995 -17.518 -8.18618 -31.6699 -17.547 -8.24247 -32.1123 -17.633 -8.31096 -32.5268 -17.7782 -8.38853 -32.9131 -17.9857 -8.47237 -33.271 -18.2586 -8.55994 -33.5999 -18.6008 -8.64892 -33.8991 -19.0165 -8.7372 -34.1677 -19.5107 -8.82285 -34.4046 -20.0889 -8.90409 -34.6085 -20.7576 -8.97926 -34.7777 -21.524 -9.0468 -34.9103 -22.3966 -9.10528 -35.004 -23.3848 -9.1533 -35.0563 -24.4997 -3.15865 -15.3022 -19.4822 -3.76876 -16.4817 -19.1861 -4.35974 -17.6372 -18.916 -4.93002 -18.7689 -18.671 -5.47833 -19.8771 -18.4501 -6.00363 -20.9618 -18.2524 -6.50504 -22.0231 -18.0774 -6.98186 -23.0612 -17.9247 -7.43351 -24.0759 -17.7941 -7.85951 -25.0674 -17.6856 -8.25948 -26.0355 -17.5992 -8.63311 -26.9802 -17.5353 -8.98014 -27.9015 -17.4944 -9.30038 -28.7992 -17.4772 -9.59368 -29.6732 -17.4847 -9.77456 -30.3648 -17.4831 -9.8714 -30.8694 -17.4958 -9.97637 -31.3439 -17.567 -10.0865 -31.7885 -17.6993 -10.1992 -32.2029 -17.8958 -10.312 -32.5868 -18.16 -10.4227 -32.9397 -18.4959 -10.5293 -33.2608 -18.9083 -10.6299 -33.5492 -19.4025 -10.7227 -33.8038 -19.9845 -10.8061 -34.0231 -20.6614 -10.8786 -34.2055 -21.4411 -10.9387 -34.3489 -22.3327 -10.9848 -34.4511 -23.3467 -11.0158 -34.5091 -24.4951 -3.85872 -14.5736 -19.52 -4.54336 -15.7502 -19.2415 -5.20507 -16.9015 -18.986 -5.84277 -18.0278 -18.7523 -6.45561 -19.1291 -18.5396 -7.04287 -20.2057 -18.347 -7.60399 -21.2576 -18.1739 -8.13851 -22.285 -18.0198 -8.64606 -23.2878 -17.8846 -9.