<?xml version="1.0"?> 
<VTKFile type="StructuredGrid" version="0.1"> 
<StructuredGrid WholeExtent="0 29 0 29 0 29"> 
<Piece Extent="0 29 0 29 0 29"> 
<PointData>
<DataArray type="Float32" Name="efield" format="ascii" NumberOfComponents="3"> 
1.53102 17.4294 8.95767 1.08924 17.7202 9.32964 0.71277 18.0109 9.60183 0.389137 18.3017 9.77529 0.108608 18.5925 9.85078 -0.136541 18.8832 9.82866 -0.352509 19.174 9.70901 -0.544334 19.4648 9.49152 -0.716151 19.7555 9.17554 -0.871383 20.0463 8.76006 -1.01289 20.3371 8.2437 -1.14309 20.6278 7.62466 -1.26402 20.9186 6.90073 -1.37742 21.2094 6.06928 -1.48479 21.5001 5.12717 -1.4466 22.2186 4.16043 -1.26949 23.3646 3.42554 -1.09811 24.5107 2.92662 -0.934332 25.6568 2.67396 -0.77982 26.8028 2.67927 -0.63604 27.9489 2.95582 -0.504294 29.095 3.51866 -0.38574 30.241 4.38483 -0.28141 31.3871 5.5736 -0.192231 32.5332 7.10679 -0.119033 33.6792 9.00911 -0.0625658 34.8253 11.3086 -0.0235058 35.9714 14.0372 -0.00246522 37.1174 17.2313 1.84922e-14 38.2635 20.9323 1.98013 16.7821 9.05734 1.65589 17.1078 9.45813 1.37989 17.4297 9.75517 1.14318 17.7484 9.94978 0.938614 18.0642 10.0429 0.760472 18.3777 10.0351 0.604077 18.6889 9.92669 0.465586 18.9981 9.71737 0.341808 19.3057 9.40667 0.230076 19.6116 8.99364 0.12814 19.9161 8.47697 0.0340907 20.2192 7.85487 -0.053702 20.5211 7.12516 -0.136638 20.8218 6.28514 -0.215928 21.1215 5.33161 -0.131565 21.8614 4.3524 0.107735 23.0401 3.60539 0.336774 24.2162 3.09317 0.554061 25.3897 2.82598 0.758279 26.5606 2.81547 0.948269 27.7292 3.07495 1.123 28.8953 3.61955 1.28157 30.0592 4.46645 1.42315 31.2208 5.63518 1.54702 32.3802 7.14795 1.65254 33.5374 9.03002 1.73913 34.6925 11.3102 1.80625 35.8455 14.0214 1.85346 36.9965 17.2012 1.88032 38.1454 20.893 2.47574 16.1812 9.14989 2.24878 16.5305 9.57735 2.05743 16.8737 9.89738 1.89513 17.2116 10.1115 1.75658 17.5448 10.221 1.63746 17.8739 10.2264 1.5342 18.1992 10.1282 1.44384 18.5212 9.92636 1.36391 18.8401 9.62044 1.29231 19.1562 9.20959 1.22728 19.4697 8.69251 1.16728 19.7807 8.06749 1.11104 20.0896 7.33229 1.05741 20.3963 6.48421 1.00543 20.701 5.51997 1.13546 21.4549 4.52885 1.43716 22.6555 3.76988 1.72491 23.8509 3.2444 1.99753 25.0414 2.9625 2.254 26.2271 2.93578 2.49343 27.4081 3.17752 2.71502 28.5845 3.70284 2.91806 29.7564 4.52903 3.10194 30.924 5.67578 3.26611 32.0872 7.16558 3.41009 33.2462 9.02413 3.53344 34.4009 11.2808 3.63578 35.5516 13.9695 3.71677 36.6982 17.1288 3.77613 37.8408 20.8038 3.00369 15.6127 9.23531 2.85852 15.9774 9.68733 2.73943 16.3346 10.0285 2.64154 16.6851 10.2606 2.56083 17.0296 10.3849 2.49403 17.3688 10.4025 2.43839 17.7032 10.3137 2.39161 18.0332 10.1186 2.35176 18.3591 9.81704 2.31721 18.6812 9.4081 2.28654 18.9998 8.89058 2.25855 19.3152 8.26277 2.23222 19.6274 7.52246 2.20663 19.9367 6.66687 2.18101 20.2433 5.69268 2.35587 21.0048 4.69033 2.71956 22.2178 3.9198 3.06632 23.4234 3.38136 3.39525 24.6219 3.08497 3.70556 25.8134 3.04212 3.99659 26.9982 3.26599 4.26773 28.1762 3.7717 4.51846 29.3478 4.57654 4.74834 30.5128 5.70031 4.95696 31.6716 7.1657 5.14399 32.8241 8.99874 5.30912 33.9704 11.2293 5.45209 35.1107 13.892 5.5727 36.245 17.0266 5.67074 37.3733 20.6793 3.55377 15.0664 9.31362 3.4783 15.4403 9.78809 3.42157 15.8059 10.1486 3.37989 16.1639 10.397 3.35024 16.5151 10.535 3.33007 16.8601 10.5635 3.31727 17.1994 10.4832 3.31006 17.5336 10.2943 3.30692 17.8628 9.99663 3.30656 18.1876 9.58938 3.30788 18.5081 9.07139 3.30992 18.8246 8.44098 3.31186 19.1373 7.69592 3.31299 19.4463 6.83342 3.31269 19.7519 5.85007 3.53125 20.5157 4.83727 3.95608 21.7329 4.05575 4.36159 22.9407 3.5049 4.74712 24.1393 3.19453 5.1121 25.329 3.13599 5.45603 26.5099 3.34236 5.77848 27.6822 3.82867 6.07909 28.8459 4.6122 6.35756 30.0013 5.71278 6.61361 31.1484 7.15326 6.84702 32.2874 8.95989 7.05762 33.4183 11.163 7.24525 34.5413 13.7977 7.40979 35.6563 16.9047 7.55116 36.7636 20.5316 4.11854 14.5347 9.38481 4.10308 14.9132 9.87964 4.10063 15.2828 10.2576 4.1084 15.6443 10.5209 4.12405 15.9983 10.6711 4.14564 16.3456 10.7096 4.17153 16.6866 10.637 4.20032 17.0218 10.4536 4.23084 17.3514 10.1594 4.26208 17.676 9.7536 4.29316 17.9956 9.23513 4.32333 18.3107 8.60232 4.35196 18.6213 7.85292 4.37847 18.9277 6.98411 4.40239 19.23 5.99243 4.66338 19.9912 4.97001 5.14812 21.2055 4.17823 5.61169 22.4086 3.61571 6.0536 23.6006 3.29211 6.47346 24.7818 3.21863 6.87092 25.9523 3.40821 7.24569 27.1123 3.8758 7.59756 28.2619 4.6386 7.92632 29.4013 5.71647 8.23182 30.5306 7.1323 8.51395 31.65 8.91256 8.77262 32.7595 11.0879 9.00778 33.8592 13.6939 9.21938 34.9492 16.7721 9.40742 36.0296 20.371 4.69241 14.0121 9.44888 4.72909 14.3916 9.96199 4.77425 14.7617 10.3557 4.82575 15.1234 10.6322 4.88182 15.4772 10.7935 4.94095 15.8239 10.8408 5.00188 16.1637 10.775 5.06352 16.4973 10.5966 5.12496 16.8248 10.3054 5.1854 17.1467 9.90092 5.24418 17.4633 9.38199 5.3007 17.7746 8.74699 5.35447 18.0811 7.99366 5.40505 18.3827 7.11917 5.45206 18.6798 6.11998 5.75408 19.4344 5.08883 6.29727 20.6398 4.28761 6.81786 21.8321 3.71432 7.31553 23.0115 3.37843 7.79002 24.1784 3.291 8.24111 25.3328 3.46482 8.66863 26.4749 3.91473 9.07247 27.6049 4.65786 9.45253 28.723 5.71402 9.80876 29.8292 7.10614 10.1411 30.9238 8.86083 10.4496 32.0067 11.009 10.7342 33.0781 13.5866 10.9951 34.1382 16.6358 11.2321 35.187 20.2062 5.27116 13.4945 9.50584 5.35347 13.8718 10.0352 5.44063 14.2397 10.4427 5.53104 14.5988 10.731 5.62332 14.9499 10.902 5.71632 15.2935 10.9572 5.80906 15.6299 10.8974 5.90073 15.9596 10.7234 5.9906 16.2829 10.4349 6.07808 16.6001 10.0315 6.16264 16.9116 9.51213 6.24383 17.2174 8.87515 6.32128 17.5178 8.11833 6.39464 17.813 7.23878 6.46364 18.1032 6.23293 6.80522 18.8476 5.19397 7.40521 20.0386 4.38422 7.98156 21.2149 3.80114 8.53406 22.3767 3.45406 9.06256 23.5242 3.35385 9.56697 24.6576 3.51319 10.0472 25.7771 3.94677 10.5032 26.8828 4.67165 10.9351 27.9749 5.70757 11.3427 29.0535 7.07747 11.7261 30.1188 8.80803 12.0855 31.1709 10.9303 12.4209 32.2099 13.4807 12.7323 33.2359 16.502 13.02 34.249 20.0443 5.85157 12.9784 9.55567 5.97405 13.3511 10.0992 6.09848 13.7143 10.5189 6.22363 14.0687 10.8174 6.34846 14.4149 10.9969 6.47211 14.7532 11.0589 6.59382 15.0842 11.0044 6.71299 15.4082 10.834 6.82906 15.7254 10.5479 6.94158 16.0362 10.1454 7.05016 16.3409 9.62568 7.15446 16.6395 8.98697 7.2542 16.9324 8.22708 7.34913 17.2197 7.34311 7.43905 17.5016 6.33143 7.81868 18.2327 5.28561 8.4737 19.4047 4.4683 9.10433 20.5604 3.87652 9.7105 21.7 3.51944 10.2921 22.8238 3.4078 10.8492 23.9319 3.55412 11.3818 25.0246 3.97298 11.8898 26.1019 4.68132 12.3734 27.1641 5.69884 12.8327 28.2113 7.04845 13.2676 29.2436 8.75688 13.6784 30.2612 10.8554 14.0652 31.2642 13.3805 14.4281 32.2528 16.3755 14.7672 33.227 19.8913 6.43115 12.4616 9.59838 6.58919 12.8274 10.154 6.74681 13.1839 10.5841 6.90311 13.5315 10.8914 7.0573 13.8708 11.0781 7.20875 14.2022 11.1459 7.35691 14.5259 11.0959 7.50131 14.8425 10.9287 7.64155 15.1521 10.6446 7.77731 15.4549 10.2429 7.90828 15.7513 9.72278 8.03424 16.0415 9.08258 8.15498 16.3255 8.32005 8.27031 16.6035 7.43229 8.38011 16.8758 6.41562 8.79628 17.591 5.36391 9.50446 18.7398 4.54006 10.1878 19.8709 3.94073 10.8463 20.9844 3.57494 11.48 22.0807 3.45332 12.0889 23.1598 3.58824 12.6731 24.2221 3.99417 13.2327 25.2675 4.68795 13.7678 26.2965 5.6892 14.2785 27.309 7.02082 14.7649 28.3052 8.70954 15.2273 29.2853 10.7867 15.6657 30.2494 13.2892 16.0804 31.1977 16.2604 16.4715 32.1302 19.7521 7.00801 11.942 9.63398 7.19765 12.2991 10.1997 7.38495 12.6469 10.6384 7.56925 12.986 10.953 7.75 13.3166 11.1457 7.92674 13.6393 11.2183 8.09907 13.9544 11.172 8.26666 14.262 11.0075 8.42924 14.5625 10.725 8.58657 14.8561 10.324 8.73845 15.1429 9.80353 8.88472 15.4232 9.16207 9.02524 15.6972 8.39735 9.15989 15.9649 7.50643 9.2886 16.2265 6.48562 9.73979 16.9233 5.42898 10.4992 18.0453 4.59964 11.2335 19.1482 3.99395 11.9429 20.2323 3.62083 12.6274 21.2977 3.49076 13.287 22.3446 3.61602 13.922 23.3733 4.01097 14.5324 24.384 4.69235 15.1184 25.3767 5.67973 15.6802 26.3518 6.99594 16.2179 27.3092 8.66774 16.7316 28.2493 10.7265 17.2217 29.1721 13.2094 17.6882 30.0777 16.16 18.1314 30.9664 19.6306 7.58069 11.4182 9.66245 7.79851 11.7647 10.2362 8.01242 12.1021 10.6819 8.22197 12.4309 11.0023 8.42679 12.7514 11.1998 8.62657 13.064 11.2762 8.82104 13.3688 11.2329 9.00998 13.6661 11.0705 9.19322 13.9562 10.7892 9.37061 14.2392 10.3887 9.54201 14.5154 9.86802 9.70734 14.7848 9.22556 9.86652 15.0476 8.45908 10.0195 15.304 7.56564 10.1662 15.5541 6.54151 10.6509 16.2304 5.48093 11.4595 17.3222 4.64717 12.2431 18.3938 4.03636 13.0018 19.4452 3.65732 13.7356 20.4768 3.52042 14.4449 21.4888 3.63786 15.1296 22.4813 4.02389 15.7899 23.4545 4.69519 16.4261 24.4086 5.67124 17.0383 25.3438 6.97487 17.6266 26.2602 8.63282 18.1914 27.1581 10.6765 18.7328 28.0376 13.1432 19.2509 28.8988 16.0768 19.7461 29.7419 19.5299 8.14813 10.8892 9.68381 8.39113 11.2233 10.2636 8.62895 11.5486 10.7144 8.8613 11.8656 11.0392 9.08797 12.1744 11.2403 9.30876 12.4753 11.3196 9.52353 12.7685 11.2785 9.73215 13.0543 11.1176 9.93452 13.3327 10.8373 10.1306 13.6041 10.4372 10.3202 13.8684 9.91632 10.5035 14.1259 9.2731 10.6803 14.3766 8.50531 10.8505 14.6207 7.60997 11.0144 14.8583 6.58337 11.5311 15.5122 5.51983 12.3869 16.571 4.68274 13.2179 17.6083 4.06808 14.0242 18.6245 3.68456 14.806 19.6197 3.5425 15.5634 20.5941 3.65401 16.2967 21.548 4.03328 17.0059 22.4815 4.69692 17.6914 23.3949 5.66437 18.3532 24.2882 6.95842 18.9916 25.1618 8.60579 19.6068 26.0157 10.638 20.199 26.8501 13.0923 20.7684 27.6653 16.0128 21.3152 28.4613 19.4523 8.70957 10.3542 9.69805 8.97512 10.6741 10.2819 9.23444 10.9856 10.7361 9.4874 11.2891 11.0638 9.73391 11.5847 11.2673 9.97388 11.8726 11.3485 10.2073 12.1529 11.3088 10.434 12.4258 11.149 10.6541 12.6915 10.8694 10.8675 12.95 10.4695 11.0743 13.2015 9.94849 11.2743 13.446 9.30477 11.4677 13.6838 8.53609 11.6545 13.9148 7.6395 11.8346 14.1392 6.61125 12.3818 14.7688 5.54574 13.2828 15.7917 4.70642 14.1592 16.7923 4.08917 15.0115 17.7707 3.70266 15.8396 18.7271 3.55714 16.6438 19.6618 3.66467 17.4243 20.575 4.0394 18.1813 21.4669 4.6979 18.9149 22.3376 5.65956 19.6254 23.1873 6.94714 20.313 24.0163 8.58739 20.9779 24.8248 10.6118 21.6203 25.6128 13.0577 22.2405 26.3807 15.9693 22.8385 27.1285 19.3997 9.26451 9.81273 9.70517 9.55025 10.1165 10.291 9.82891 10.4125 10.747 10.1005 10.7009 11.0761 10.365 10.9818 11.2808 10.6225 11.2552 11.3629 10.873 11.5213 11.324 11.1164 11.7801 11.1647 11.3529 12.0318 10.8854 11.5825 12.2764 10.4856 11.8052 12.514 9.96457 12.0211 12.7447 9.32059 12.2301 12.9685 8.55148 12.4325 13.1856 7.65426 12.6281 13.396 6.62518 13.2044 13.9997 5.55868 14.1482 14.9843 4.71825 15.0682 15.9457 4.09971 15.9645 16.8841 3.71169 16.8372 17.7996 3.56444 17.6867 18.6926 3.66998 18.513 19.5632 4.04243 19.3164 20.4116 4.69833 20.0971 21.2381 5.65708 20.8553 22.0427 6.94142 21.5911 22.8258 8.57807 22.3049 23.5874 10.5986 22.9968 24.3279 13.0402 23.667 25.0474 15.9474 24.3157 25.746 19.3731 9.81273 9.26451 9.70517 10.1165 9.55025 10.291 10.4125 9.82891 10.747 10.7009 10.1005 11.0761 10.9818 10.365 11.2808 11.2552 10.6225 11.3629 11.5213 10.873 11.324 11.7801 11.1164 11.1647 12.0318 11.3529 10.8854 12.2764 11.5825 10.4856 12.514 11.8052 9.96457 12.7447 12.0211 9.32059 12.9685 12.2301 8.55148 13.1856 12.4325 7.65426 13.396 12.6281 6.62518 13.9997 13.2044 5.55868 14.9843 14.1482 4.71825 15.9457 15.0682 4.09971 16.8841 15.9645 3.71169 17.7996 16.8372 3.56444 18.6926 17.6867 3.66998 19.5632 18.513 4.04243 20.4116 19.3164 4.69833 21.2381 20.0971 5.65708 22.0427 20.8553 6.94142 22.8258 21.5911 8.57807 23.5874 22.3049 10.5986 24.3279 22.9968 13.0402 25.0474 23.667 15.9474 25.746 24.3157 19.3731 10.3542 8.70957 9.69805 10.6741 8.97512 10.2819 10.9856 9.23444 10.7361 11.2891 9.4874 11.0638 11.5847 9.73391 11.2673 11.8726 9.97388 11.3485 12.1529 10.2073 11.3088 12.4258 10.434 11.149 12.6915 10.6541 10.8694 12.95 10.8675 10.4695 13.2015 11.0743 9.94849 13.446 11.2743 9.30477 13.6838 11.4677 8.53609 13.9148 11.6545 7.6395 14.1392 11.8346 6.61125 14.7688 12.3818 5.54574 15.7917 13.2828 4.70642 16.7923 14.1592 4.08917 17.7707 15.0115 3.70266 18.7271 15.8396 3.55714 19.6618 16.6438 3.66467 20.575 17.4243 4.0394 21.4669 18.1813 4.6979 22.3376 18.9149 5.65956 23.1873 19.6254 6.94714 24.0163 20.313 8.58739 24.8248 20.9779 10.6118 25.6128 21.6203 13.0577 26.3807 22.2405 15.9693 27.1285 22.8385 19.3997 10.8892 8.14813 9.68381 11.2233 8.39113 10.2636 11.5486 8.62895 10.7144 11.8656 8.8613 11.0392 12.1744 9.08797 11.2403 12.4753 9.30876 11.3196 12.7685 9.52353 11.2785 13.0543 9.73215 11.1176 13.3327 9.93452 10.8373 13.6041 10.1306 10.4372 13.8684 10.3202 9.91632 14.1259 10.5035 9.2731 14.3766 10.6803 8.50531 14.6207 10.8505 7.60997 14.8583 11.0144 6.58337 15.5122 11.5311 5.51983 16.571 12.3869 4.68274 17.6083 13.2179 4.06808 18.6245 14.0242 3.68456 19.6197 14.806 3.5425 20.5941 15.5634 3.65401 21.548 16.2967 4.03328 22.4815 17.0059 4.69692 23.3949 17.6914 5.66437 24.2882 18.3532 6.95842 25.1618 18.9916 8.60579 26.0157 19.6068 10.638 26.8501 20.199 13.0923 27.6653 20.7684 16.0128 28.4613 21.3152 19.4523 11.4182 7.58069 9.66245 11.7647 7.79851 10.2362 12.1021 8.01242 10.6819 12.4309 8.22197 11.0023 12.7514 8.42679 11.1998 13.064 8.62657 11.2762 13.3688 8.82104 11.2329 13.6661 9.00998 11.0705 13.9562 9.19322 10.7892 14.2392 9.37061 10.3887 14.5154 9.54201 9.86802 14.7848 9.70734 9.22556 15.0476 9.86652 8.45908 15.304 10.0195 7.56564 15.5541 10.1662 6.54151 16.2304 10.6509 5.48093 17.3222 11.4595 4.64717 18.3938 12.2431 4.03636 19.4452 13.0018 3.65732 20.4768 13.7356 3.52042 21.4888 14.4449 3.63786 22.4813 15.1296 4.02389 23.4545 15.7899 4.69519 24.4086 16.4261 5.67124 25.3438 17.0383 6.97487 26.2602 17.6266 8.63282 27.1581 18.1914 10.6765 28.0376 18.7328 13.1432 28.8988 19.2509 16.0768 29.7419 19.7461 19.5299 11.942 7.00801 9.63398 12.2991 7.19765 10.1997 12.6469 7.38495 10.6384 12.986 7.56925 10.953 13.3166 7.75 11.1457 13.6393 7.92674 11.2183 13.9544 8.09907 11.172 14.262 8.26666 11.0075 14.5625 8.42924 10.725 14.8561 8.58657 10.324 15.1429 8.73845 9.80353 15.4232 8.88472 9.16207 15.6972 9.02524 8.39735 15.9649 9.15989 7.50643 16.2265 9.2886 6.48562 16.9233 9.73979 5.42898 18.0453 10.4992 4.59964 19.1482 11.2335 3.99395 20.2323 11.9429 3.62083 21.2977 12.6274 3.49076 22.3446 13.287 3.61602 23.3733 13.922 4.01097 24.384 14.5324 4.69235 25.3767 15.1184 5.67973 26.3518 15.6802 6.99594 27.3092 16.2179 8.66774 28.2493 16.7316 10.7265 29.1721 17.2217 13.2094 30.0777 17.6882 16.16 30.9664 18.1314 19.6306 12.4616 6.43115 9.59838 12.8274 6.58919 10.154 13.1839 6.74681 10.5841 13.5315 6.90311 10.8914 13.8708 7.0573 11.0781 14.2022 7.20875 11.1459 14.5259 7.35691 11.0959 14.8425 7.50131 10.9287 15.1521 7.64155 10.6446 15.4549 7.77731 10.2429 15.7513 7.90828 9.72278 16.0415 8.03424 9.08258 16.3255 8.15498 8.32005 16.6035 8.27031 7.43229 16.8758 8.38011 6.41562 17.591 8.79628 5.36391 18.7398 9.50446 4.54006 19.8709 10.1878 3.94073 20.9844 10.8463 3.57494 22.0807 11.48 3.45332 23.1598 12.0889 3.58824 24.2221 12.6731 3.99417 25.2675 13.2327 4.68795 26.2965 13.7678 5.6892 27.309 14.2785 7.02082 28.3052 14.7649 8.70954 29.2853 15.2273 10.7867 30.2494 15.6657 13.2892 31.1977 16.0804 16.2604 32.1302 16.4715 19.7521 12.9784 5.85157 9.55567 13.3511 5.97405 10.0992 13.7143 6.09848 10.5189 14.0687 6.22363 10.8174 14.4149 6.34846 10.9969 14.7532 6.47211 11.0589 15.0842 6.59382 11.0044 15.4082 6.71299 10.834 15.7254 6.82906 10.5479 16.0362 6.94158 10.1454 16.3409 7.05016 9.62568 16.6395 7.15446 8.98697 16.9324 7.2542 8.22708 17.2197 7.34913 7.34311 17.5016 7.43905 6.33143 18.2327 7.81868 5.28561 19.4047 8.4737 4.4683 20.5604 9.10433 3.87652 21.7 9.7105 3.51944 22.8238 10.2921 3.4078 23.9319 10.8492 3.55412 25.0246 11.3818 3.97298 26.1019 11.8898 4.68132 27.1641 12.3734 5.69884 28.2113 12.8327 7.04845 29.2436 13.2676 8.75688 30.2612 13.6784 10.8554 31.2642 14.0652 13.3805 32.2528 14.4281 16.3755 33.227 14.7672 19.8913 13.4945 5.27116 9.50584 13.8718 5.35347 10.0352 14.2397 5.44063 10.4427 14.5988 5.53104 10.731 14.9499 5.62332 10.902 15.2935 5.71632 10.9572 15.6299 5.80906 10.8974 15.9596 5.90073 10.7234 16.2829 5.9906 10.4349 16.6001 6.07808 10.0315 16.9116 6.16264 9.51213 17.2174 6.24383 8.87515 17.5178 6.32128 8.11833 17.813 6.39464 7.23878 18.1032 6.46364 6.23293 18.8476 6.80522 5.19397 20.0386 7.40521 4.38422 21.2149 7.98156 3.80114 22.3767 8.53406 3.45406 23.5242 9.06256 3.35385 24.6576 9.56697 3.51319 25.7771 10.0472 3.94677 26.8828 10.5032 4.67165 27.9749 10.9351 5.70757 29.0535 11.3427 7.07747 30.1188 11.7261 8.80803 31.1709 12.0855 10.9303 32.2099 12.4209 13.4807 33.2359 12.7323 16.502 34.249 13.02 20.0443 14.0121 4.69241 9.44888 14.3916 4.72909 9.96199 14.7617 4.77425 10.3557 15.1234 4.82575 10.6322 15.4772 4.88182 10.7935 15.8239 4.94095 10.8408 16.1637 5.00188 10.775 16.4973 5.06352 10.5966 16.8248 5.12496 10.3054 17.1467 5.1854 9.90092 17.4633 5.24418 9.38199 17.7746 5.3007 8.74699 18.0811 5.35447 7.99366 18.3827 5.40505 7.11917 18.6798 5.45206 6.11998 19.4344 5.75408 5.08883 20.6398 6.29727 4.28761 21.8321 6.81786 3.71432 23.0115 7.31553 3.37843 24.1784 7.79002 3.291 25.3328 8.24111 3.46482 26.4749 8.66863 3.91473 27.6049 9.07247 4.65786 28.723 9.45253 5.71402 29.8292 9.80876 7.10614 30.9238 10.1411 8.86083 32.0067 10.4496 11.009 33.0781 10.7342 13.5866 34.1382 10.9951 16.6358 35.187 11.2321 20.2062 14.5347 4.11854 9.38481 14.9132 4.10308 9.87964 15.2828 4.10063 10.2576 15.6443 4.1084 10.5209 15.9983 4.12405 10.6711 16.3456 4.14564 10.7096 16.6866 4.17153 10.637 17.0218 4.20032 10.4536 17.3514 4.23084 10.1594 17.676 4.26208 9.7536 17.9956 4.29316 9.23513 18.3107 4.32333 8.60232 18.6213 4.35196 7.85292 18.9277 4.37847 6.98411 19.23 4.40239 5.99243 19.9912 4.66338 4.97001 21.2055 5.14812 4.17823 22.4086 5.61169 3.61571 23.6006 6.0536 3.29211 24.7818 6.47346 3.21863 25.9523 6.87092 3.40821 27.1123 7.24569 3.8758 28.2619 7.59756 4.6386 29.4013 7.92632 5.71647 30.5306 8.23182 7.1323 31.65 8.51395 8.91256 32.7595 8.77262 11.0879 33.8592 9.00778 13.6939 34.9492 9.21938 16.7721 36.0296 9.40742 20.371 15.0664 3.55377 9.31362 15.4403 3.4783 9.78809 15.8059 3.42157 10.1486 16.1639 3.37989 10.397 16.5151 3.35024 10.535 16.8601 3.33007 10.5635 17.1994 3.31727 10.4832 17.5336 3.31006 10.2943 17.8628 3.30692 9.99663 18.1876 3.30656 9.58938 18.5081 3.30788 9.07139 18.8246 3.30992 8.44098 19.1373 3.31186 7.69592 19.4463 3.31299 6.83342 19.7519 3.31269 5.85007 20.5157 3.53125 4.83727 21.7329 3.95608 4.05575 22.9407 4.36159 3.5049 24.1393 4.74712 3.19453 25.329 5.1121 3.13599 26.5099 5.45603 3.34236 27.6822 5.77848 3.82867 28.8459 6.07909 4.6122 30.0013 6.35756 5.71278 31.1484 6.61361 7.15326 32.2874 6.84702 8.95989 33.4183 7.05762 11.163 34.5413 7.24525 13.7977 35.6563 7.40979 16.9047 36.7636 7.55116 20.5316 15.6127 3.00369 9.23531 15.9774 2.85852 9.68733 16.3346 2.73943 10.0285 16.6851 2.64154 10.2606 17.0296 2.56083 10.3849 17.3688 2.49403 10.4025 17.7032 2.43839 10.3137 18.0332 2.39161 10.1186 18.3591 2.35176 9.81704 18.6812 2.31721 9.4081 18.9998 2.28654 8.89058 19.3152 2.25855 8.26277 19.6274 2.23222 7.52246 19.9367 2.20663 6.66687 20.2433 2.18101 5.69268 21.0048 2.35587 4.69033 22.2178 2.71956 3.9198 23.4234 3.06632 3.38136 24.6219 3.39525 3.08497 25.8134 3.70556 3.04212 26.9982 3.99659 3.26599 28.1762 4.26773 3.7717 29.3478 4.51846 4.57654 30.5128 4.74834 5.70031 31.6716 4.95696 7.1657 32.8241 5.14399 8.99874 33.9704 5.30912 11.2293 35.1107 5.45209 13.892 36.245 5.5727 17.0266 37.3733 5.67074 20.6793 16.1812 2.47574 9.14989 16.5305 2.24878 9.57735 16.8737 2.05743 9.89738 17.2116 1.89513 10.1115 17.5448 1.75658 10.221 17.8739 1.63746 10.2264 18.1992 1.5342 10.1282 18.5212 1.44384 9.92636 18.8401 1.36391 9.62044 19.1562 1.29231 9.20959 19.4697 1.22728 8.69251 19.7807 1.16728 8.06749 20.0896 1.11104 7.33229 20.3963 1.05741 6.48421 20.701 1.00543 5.51997 21.4549 1.13546 4.52885 22.6555 1.43716 3.76988 23.8509 1.72491 3.2444 25.0414 1.99753 2.9625 26.2271 2.254 2.93578 27.4081 2.49343 3.17752 28.5845 2.71502 3.70284 29.7564 2.91806 4.52903 30.924 3.10194 5.67578 32.0872 3.26611 7.16558 33.2462 3.41009 9.02413 34.4009 3.53344 11.2808 35.5516 3.63578 13.9695 36.6982 3.71677 17.1288 37.8408 3.77613 20.8038 16.7821 1.98013 9.05734 17.1078 1.65589 9.45813 17.4297 1.37989 9.75517 17.7484 1.14318 9.94978 18.0642 0.938614 10.0429 18.3777 0.760472 10.0351 18.6889 0.604077 9.92669 18.9981 0.465586 9.71737 19.3057 0.341808 9.40667 19.6116 0.230076 8.99364 19.9161 0.12814 8.47697 20.2192 0.0340907 7.85487 20.5211 -0.053702 7.12516 20.8218 -0.136638 6.28514 21.1215 -0.215928 5.33161 21.8614 -0.131565 4.3524 23.0401 0.107735 3.60539 24.2162 0.336774 3.09317 25.3897 0.554061 2.82598 26.5606 0.758279 2.81547 27.7292 0.948269 3.07495 28.8953 1.123 3.61955 30.0592 1.28157 4.46645 31.2208 1.42315 5.63518 32.3802 1.54702 7.14795 33.5374 1.65254 9.03002 34.6925 1.73913 11.3102 35.8455 1.80625 14.0214 36.9965 1.85346 17.2012 38.1454 1.88032 20.893 17.4294 1.53102 8.95767 17.7202 1.08924 9.32964 18.0109 0.71277 9.60183 18.3017 0.389137 9.77529 18.5925 0.108608 9.85078 18.8832 -0.136541 9.82866 19.174 -0.352509 9.70901 19.4648 -0.544334 9.49152 19.7555 -0.716151 9.17554 20.0463 -0.871383 8.76006 20.3371 -1.01289 8.2437 20.6278 -1.14309 7.62466 20.9186 -1.26402 6.90073 21.2094 -1.37742 6.06928 21.5001 -1.48479 5.12717 22.2186 -1.4466 4.16043 23.3646 -1.26949 3.42554 24.5107 -1.09811 2.92662 25.6568 -0.934332 2.67396 26.8028 -0.77982 2.67927 27.9489 -0.63604 2.95582 29.095 -0.504294 3.51866 30.241 -0.38574 4.38483 31.3871 -0.28141 5.5736 32.5332 -0.192231 7.10679 33.6792 -0.119033 9.00911 34.8253 -0.0625658 11.3086 35.9714 -0.0235058 14.0372 37.1174 -0.00246522 17.2313 38.2635 1.34784e-14 20.9323 -0.0283658 15.4468 20.4662 -0.236662 16.0801 19.9975 -0.387901 16.7125 19.5461 -0.495207 17.3439 19.1111 -0.568791 17.974 18.692 -0.61672 18.6026 18.2879 -0.645451 19.2296 17.8983 -0.660214 19.8547 17.5225 -0.665294 20.4778 17.1599 -0.664234 21.0989 16.81 -0.659987 21.7176 16.4723 -0.65504 22.3341 16.1462 -0.651496 22.948 15.8312 -0.651151 23.5594 15.527 -0.655545 24.1681 15.233 -0.746638 24.5168 14.8963 -0.883892 24.6073 14.5397 -0.977515 24.6972 14.2237 -1.03237 24.786 13.9488 -1.0527 24.8729 13.7156 -1.04226 24.9575 13.525 -1.00433 25.039 13.3778 -0.941842 25.1168 13.2753 -0.85736 25.1902 13.2186 -0.753172 25.2585 13.2095 -0.631304 25.3209 13.2495 -0.493552 25.3767 13.3408 -0.341507 25.4248 13.4856 -0.176577 25.4644 13.6867 1.31051e-14 25.4945 13.9469 0.34568 14.7536 20.68 0.272383 15.4306 20.236 0.23749 16.1019 19.8053 0.231733 16.7678 19.387 0.247773 17.4287 18.9805 0.279719 18.0847 18.585 0.322791 18.736 18.1999 0.373067 19.3828 17.8246 0.427304 20.025 17.4585 0.482793 20.6629 17.101 0.537259 21.2965 16.7517 0.588773 21.9258 16.4099 0.635694 22.5509 16.0753 0.676613 23.1717 15.7474 0.710318 23.7885 15.4257 0.656899 24.1749 15.0656 0.551836 24.3313 14.6944 0.482091 24.4836 14.3656 0.443499 24.6313 14.0798 0.432391 24.7741 13.8378 0.445529 24.9115 13.6405 0.480042 25.043 13.4889 0.533385 25.1681 13.3844 0.603295 25.2861 13.3286 0.687757 25.3964 13.3231 0.784977 25.4984 13.37 0.893357 25.5911 13.4717 1.01148 25.6738 13.6308 1.13807 25.7455 13.8504 1.27203 25.8052 14.134 0.772478 14.1131 20.8785 0.812188 14.8212 20.4586 0.876512 15.5201 20.048 0.958809 16.2107 19.646 1.05374 16.8935 19.2519 1.15697 17.5689 18.8649 1.26495 18.2372 18.4844 1.37471 18.8989 18.1098 1.48382 19.5541 17.7406 1.5902 20.203 17.3762 1.69212 20.8458 17.016 1.78808 21.4828 16.6595 1.87682 22.114 16.3063 1.95726 22.7396 15.9559 2.02844 23.3598 15.6078 2.01302 23.7758 15.2248 1.94192 23.9865 14.8377 1.89881 24.1901 14.4946 1.88011 24.3864 14.1959 1.88268 24.5752 13.9427 1.9037 24.756 13.7358 1.94069 24.9286 13.5767 1.99142 25.0923 13.4668 2.0539 25.2467 13.4079 2.12637 25.3912 13.4018 2.20723 25.5251 13.451 2.29506 25.6476 13.5582 2.38859 25.7579 13.7263 2.48668 25.8549 13.9589 2.58832 25.9377 14.2598 1.23742 13.5108 21.0618 1.37316 14.2404 20.665 1.52313 14.9586 20.2738 1.68253 15.6662 19.8874 1.84743 16.3639 19.5053 2.01465 17.0522 19.1266 2.18153 17.7317 18.7508 2.34586 18.4026 18.3772 2.50579 19.0655 18.0052 2.65976 19.7205 17.6344 2.80645 20.3679 17.2642 2.94473 21.0081 16.894 3.07365 21.6412 16.5234 3.19237 22.2674 16.152 3.30019 22.887 15.7792 3.32261 23.3252 15.3738 3.28648 23.5799 14.9704 3.27188 23.8252 14.6119 3.27575 24.0609 14.2992 3.29538 24.2868 14.0332 3.32834 24.5027 13.815 3.37248 24.7083 13.6461 3.42584 24.903 13.5282 3.4867 25.0865 13.4632 3.55348 25.2581 13.4534 3.62478 25.4172 13.5013 3.69932 25.5629 13.61 3.77598 25.6945 13.7828 3.8537 25.811 14.0237 3.93156 25.9111 14.3371 1.72992 12.9361 21.2298 1.94825 13.68 20.8548 2.17289 14.4108 20.482 2.40032 15.1293 20.1106 2.62768 15.8362 19.7399 2.8526 16.5323 19.3693 3.07313 17.2179 18.9981 3.28761 17.8935 18.6256 3.49467 18.5596 18.2514 3.69315 19.2165 17.8748 3.88206 19.8645 17.4954 4.06056 20.5041 17.1126 4.22796 21.1353 16.7259 4.38363 21.7586 16.335 4.52708 22.3742 15.9392 4.58684 22.8283 15.5125 4.58605 23.1179 15.0927 4.60111 23.3961 14.7187 4.6294 23.663 14.3913 4.66859 23.9182 14.1116 4.71659 24.1617 13.881 4.77151 24.3931 13.7009 4.83167 24.612 13.5732 4.89554 24.8179 13.5002 4.96173 25.0104 13.4842 5.029 25.1886 13.5281 5.0962 25.3519 13.6352 5.1623 25.4994 13.8094 5.22635 25.63 14.0548 5.28747 25.7426 14.3766 2.24209 12.381 21.3825 2.53217 13.1336 21.0279 2.82242 13.8717 20.6724 3.11028 14.5962 20.315 3.39367 15.3078 19.9552 3.67084 16.0071 19.5922 3.94037 16.6947 19.2254 4.20105 17.3711 18.8542 4.45187 18.0367 18.4781 4.69198 18.6919 18.0964 4.92068 19.3371 17.7087 5.13736 19.9727 17.3144 5.34154 20.599 16.913 5.53278 21.2163 16.5041 5.71074 21.8249 16.0872 5.80703 22.2891 15.6406 5.84146 22.6055 15.2049 5.88674 22.9091 14.8155 5.94063 23.1997 14.4734 6.00113 23.4773 14.1798 6.06644 23.7417 13.9362 6.13492 23.9925 13.7441 6.20511 24.2295 13.6057 6.27565 24.4521 13.5232 6.34532 24.6598 13.4994 6.41301 24.852 13.5374 6.47767 25.0277 13.6408 6.53836 25.1863 13.8137 6.59419 25.3265 14.0609 6.64434 25.4472 14.3878 2.76803 11.8397 21.5199 3.12092 12.5963 21.1842 3.46919 13.3374 20.8445 3.81102 14.0638 20.5002 4.14488 14.7761 20.1504 4.46953 15.475 19.7946 4.78393 16.1612 19.4321 5.08723 16.8349 19.0622 5.37871 17.4968 18.6845 5.65779 18.1473 18.2983 5.92398 18.7867 17.9031 6.17688 19.4155 17.4985 6.41616 20.034 17.0839 6.64156 20.6426 16.6588 6.85287 21.2416 16.2227 6.98466 21.711 15.7577 7.05376 22.0471 15.3068 7.12932 22.3692 14.9027 7.20943 22.6771 14.5463 7.29237 22.9709 14.2391 7.37659 23.2502 13.9824 7.46067 23.5149 13.7782 7.54332 23.7645 13.6285 7.62337 23.9987 13.536 7.69972 24.2167 13.5035 7.77135 24.4181 13.5344 7.83732 24.602 13.6325 7.89674 24.7674 13.8023 7.94878 24.9133 14.049 7.99261 25.0385 14.3784 3.3032 11.3076 21.6421 3.71142 12.0644 21.3234 4.11129 12.8048 20.9982 4.50151 13.5296 20.6657 4.881 14.2394 20.3252 5.2489 14.9348 19.9759 5.60448 15.6163 19.6174 5.94717 16.2846 19.2488 6.27649 16.94 18.8698 6.59206 17.5831 18.4797 6.89358 18.2141 18.078 7.18081 18.8336 17.6642 7.45356 19.442 17.2378 7.71171 20.0395 16.7982 7.95516 20.6266 16.3451 8.12127 21.0968 15.8633 8.22416 21.4463 15.3984 8.32964 21.7808 14.9804 8.43611 22.1003 14.6106 8.54209 22.4046 14.2903 8.64625 22.6937 14.0211 8.74734 22.9672 13.805 8.84426 23.2248 13.6443 8.93594 23.4659 13.5415 9.0214 23.6901 13.4999 9.09973 23.8966 13.523 9.17004 24.0847 13.615 9.2315 24.2535 13.7806 9.28328 24.4018 14.0252 9.32458 24.5283 14.3553 3.84414 10.7813 21.749 4.30134 11.535 21.4455 4.74727 12.2716 21.1332 5.18103 12.9917 20.8113 5.60189 13.696 20.479 6.00927 14.385 20.1357 6.40272 15.0594 19.7807 6.78186 15.7196 19.4135 7.14642 16.3661 19.0335 7.49618 16.9994 18.64 7.831 17.6198 18.2327 8.15076 18.2279 17.8109 8.45541 18.824 17.3741 8.74492 19.4084 16.9218 9.01932 19.9817 16.4536 9.21843 20.4487 15.957 9.35393 20.8059 15.4793 9.48865 21.1474 15.0488 9.62123 21.4733 14.6666 9.75041 21.7835 14.3343 9.87504 22.0776 14.0534 9.99405 22.3555 13.8261 10.1064 22.6168 13.6547 10.2113 22.861 13.5421 10.3077 23.0876 13.4916 10.3948 23.2958 13.5068 10.4718 23.4848 13.5923 10.5379 23.6538 13.753 10.5922 23.8017 13.9946 10.634 23.927 14.3239 4.38815 10.258 21.8406 4.88888 11.0057 21.5504 5.37605 11.7356 21.2493 5.84909 12.4483 20.9365 6.30753 13.1445 20.6115 6.75104 13.8248 20.2734 7.17934 14.4896 19.9217 7.59225 15.1395 19.5557 7.98966 15.7749 19.1748 8.37147 16.3963 18.7786 8.73767 17.0041 18.3664 9.08827 17.5988 17.9377 9.4233 18.1808 17.4921 9.74285 18.7504 17.0289 10.047 19.308 16.5477 10.2777 19.7684 16.0383 10.4444 20.1283 15.5494 10.6074 20.4721 15.1077 10.7655 20.7998 14.7145 10.9176 21.1114 14.3714 11.0629 21.4066 14.08 11.2002 21.685 13.8425 11.3289 21.9464 13.6614 11.4479 22.1902 13.5397 11.5565 22.4158 13.4807 11.654 22.6227 13.4885 11.7394 22.8099 13.5676 11.8121 22.9766 13.7231 11.8712 23.1216 13.9613 11.9158 23.2437 14.2891 4.93317 9.73581 21.9169 5.47267 10.4747 21.6378 5.99685 11.1953 21.3462 6.50538 11.8982 21.0413 6.99802 12.584 20.7224 7.47461 13.2531 20.3887 7.93503 13.9063 20.0398 8.37927 14.5437 19.6748 8.8073 15.1661 19.2934 9.21918 15.7737 18.8948 9.61498 16.3671 18.4787 9.9948 16.9467 18.0443 10.3588 17.5129 17.5913 10.707 18.066 17.119 11.0398 18.6066 16.627 11.3006 19.0572 16.1068 11.4968 19.4152 15.6083 11.6868 19.757 15.1571 11.8696 20.0825 14.7545 12.0442 20.3917 14.4019 12.2098 20.6843 14.1014 12.3656 20.9599 13.855 12.5108 21.2181 13.6655 12.6446 21.4585 13.5357 12.7663 21.6805 13.4692 12.8752 21.8834 13.4702 12.9703 22.0665 13.5433 13.0511 22.2287 13.6941 13.1166 22.369 13.9288 13.166 22.4861 14.2546 5.47762 9.21301 21.978 6.0517 9.94054 21.7079 6.60913 10.6494 21.4239 7.14977 11.3401 21.1253 7.67354 12.0132 20.8114 8.18044 12.6693 20.4813 8.6705 13.3086 20.1346 9.14378 13.9318 19.7706 9.60039 14.5393 19.3887 10.0405 15.1315 18.9884 10.4642 15.7088 18.569 10.8717 16.2716 18.1302 11.2632 16.8205 17.6712 11.639 17.3557 17.1917 11.9992 17.8778 16.691 12.2885 18.3159 16.162 12.5125 18.