<?xml version="1.0"?> 
<VTKFile type="StructuredGrid" version="0.1"> 
<StructuredGrid WholeExtent="0 14 0 14 0 29"> 
<Piece Extent="0 14 0 14 0 29"> 
<PointData>
<DataArray type="Float32" Name="efield" format="ascii" NumberOfComponents="3"> 
0.0569997 12.0901 0.150745 -0.0386122 13.2639 0.0724652 -0.0498727 14.4376 0.0129086 0.0145953 15.6114 -0.0261017 0.149128 16.7851 -0.0387044 0.349851 17.9589 -0.0146941 0.614026 19.1326 0.0609861 0.93966 20.3064 0.208999 0.88138 22.5775 0.284182 0.758979 24.8486 0.245308 0.601013 27.1197 0.126805 0.429914 29.3908 -0.0261515 0.26355 31.6619 -0.154397 0.11633 33.9331 -0.180115 2.53767e-14 36.2042 1.83403e-13 -0.732084 11.1439 0.155348 -1.01909 12.2639 0.061036 -1.22035 13.3815 -0.00288432 -1.34472 14.4954 -0.0357163 -1.39849 15.6051 -0.0323277 -1.3863 16.7098 0.0171281 -1.31168 17.8094 0.12773 -1.17738 18.9034 0.320604 -1.6195 21.4271 0.410739 -2.06027 23.9208 0.365159 -2.48155 26.3869 0.222482 -2.86904 28.8274 0.0340384 -3.21131 31.2438 -0.132003 -3.49916 33.6376 -0.184496 -3.72516 36.0096 1.59678e-13 -1.62431 10.3008 0.159244 -2.04606 11.3607 0.0514114 -2.38838 12.4148 -0.0161248 -2.65861 13.4615 -0.0437431 -2.86225 14.4995 -0.0270144 -3.00357 15.5281 0.0435447 -3.086 16.5466 0.182995 -3.11235 17.5545 0.412837 -3.91589 20.1973 0.51523 -4.67412 22.7877 0.464145 -5.37603 25.329 0.301645 -6.01298 27.8239 0.0840265 -6.5782 30.2745 -0.113266 -7.06641 32.6827 -0.188126 -7.47347 35.05 1.31721e-13 -2.55713 9.49834 0.162431 -3.08061 10.499 0.0435683 -3.53322 11.4893 -0.0268741 -3.92055 12.4674 -0.0502362 -4.24702 13.4322 -0.0227235 -4.5162 14.3826 0.0648073 -4.73104 15.318 0.227373 -4.89408 16.2379 0.486768 -6.03189 18.9034 0.598905 -7.09547 21.4988 0.54342 -8.07864 24.0274 0.365135 -8.97676 26.4922 0.124247 -9.78639 28.8955 -0.0980906 -10.5051 31.2394 -0.191038 -11.1311 33.5256 1.12857e-13 -3.49756 8.70347 0.16491 -4.10212 9.64779 0.0374878 -4.64471 10.5759 -0.0351824 -5.1294 11.4865 -0.0552399 -5.55948 12.3785 -0.0194215 -5.93775 13.2511 0.0811248 -6.26659 14.1037 0.261362 -6.54809 14.936 0.543301 -7.99127 17.5526 0.66283 -9.34191 20.0848 0.603983 -10.5972 22.5359 0.413692 -11.7552 24.9087 0.155089 -12.8148 27.2057 -0.0863901 -13.7754 29.4288 -0.193264 -14.6372 31.5801 9.74993e-14 -4.42716 7.89777 0.16668 -5.09949 8.78835 0.0331551 -5.71853 9.65628 -0.041089 -6.287 10.5007 -0.0587891 -6.80721 11.3209 -0.0170818 -7.28116 12.1165 0.0926614 -7.71063 12.8872 0.285355 -8.09722 13.6328 0.583157 -9.81643 16.1458 0.707861 -11.4326 18.5633 0.646642 -12.9451 20.8884 0.44792 -14.3539 23.1236 0.176872 -15.6594 25.2714 -0.0780898 -16.8624 27.3339 -0.194832 -17.9639 29.3129 6.37942e-14 -5.33553 7.07083 0.167743 -6.06721 7.90923 0.0305597 -6.75388 8.71796 -0.0446217 -7.39712 9.49678 -0.0609087 -7.99834 10.2456 -0.0156857 -8.55881 10.9646 0.0995358 -9.07972 11.6537 0.299636 -9.56215 12.3132 0.606858 -11.5278 14.6789 0.734625 -13.3859 16.9414 0.671993 -15.1373 19.1032 0.468272 -16.783 21.1667 0.189842 -18.3246 23.1341 -0.0731334 -19.7634 25.0074 -0.195763 -21.1011 26.7887 5.96846e-14 -6.2173 6.2173 0.168097 -7.00344 7.00344 0.0296952 -7.75244 7.75244 -0.0457974 -8.4649 8.4649 -0.0616135 -9.14145 9.14145 -0.0152216 -9.78268 9.78268 0.101819 -10.3892 10.3892 0.304377 -10.9617 10.9617 0.614723 -13.1436 13.1436 0.743504 -15.218 15.218 0.680402 -17.187 17.187 0.475024 -19.0522 19.0522 0.194148 -20.8157 20.8157 -0.0714853 -22.4794 22.4794 -0.196072 -24.0451 24.0451 5.59256e-14 -7.07083 5.33553 0.167743 -7.90923 6.06721 0.0305597 -8.71796 6.75388 -0.0446217 -9.49678 7.39712 -0.0609087 -10.2456 7.99834 -0.0156857 -10.9646 8.55881 0.0995358 -11.6537 9.07972 0.299636 -12.3132 9.56215 0.606858 -14.6789 11.5278 0.734625 -16.9414 13.3859 0.671993 -19.1032 15.1373 0.468272 -21.1667 16.783 0.189842 -23.1341 18.3246 -0.0731334 -25.0074 19.7634 -0.195763 -26.7887 21.1011 6.30575e-14 -7.89777 4.42716 0.16668 -8.78835 5.09949 0.0331551 -9.65628 5.71853 -0.041089 -10.5007 6.287 -0.0587891 -11.3209 6.80721 -0.0170818 -12.1165 7.28116 0.0926614 -12.8872 7.71063 0.285355 -13.6328 8.09722 0.583157 -16.1458 9.81643 0.707861 -18.5633 11.4326 0.646642 -20.8884 12.9451 0.44792 -23.1236 14.3539 0.176872 -25.2714 15.6594 -0.0780898 -27.3339 16.8624 -0.194832 -29.3129 17.9639 7.30681e-14 -8.70347 3.49756 0.16491 -9.64779 4.10212 0.0374878 -10.5759 4.64471 -0.0351824 -11.4865 5.1294 -0.0552399 -12.3785 5.55948 -0.0194215 -13.2511 5.93775 0.0811248 -14.1037 6.26659 0.261362 -14.936 6.54809 0.543301 -17.5526 7.99127 0.66283 -20.0848 9.34191 0.603983 -22.5359 10.5972 0.413692 -24.9087 11.7552 0.155089 -27.2057 12.8148 -0.0863901 -29.4288 13.7754 -0.193264 -31.5801 14.6372 9.14504e-14 -9.49834 2.55713 0.162431 -10.499 3.08061 0.0435683 -11.4893 3.53322 -0.0268741 -12.4674 3.92055 -0.0502362 -13.4322 4.24702 -0.0227235 -14.3826 4.5162 0.0648073 -15.318 4.73104 0.227373 -16.2379 4.89408 0.486768 -18.9034 6.03189 0.598905 -21.4988 7.09547 0.54342 -24.0274 8.07864 0.365135 -26.4922 8.97676 0.124247 -28.8955 9.78639 -0.0980906 -31.2394 10.5051 -0.191038 -33.5256 11.1311 1.06497e-13 -10.3008 1.62431 0.159244 -11.3607 2.04606 0.0514114 -12.4148 2.38838 -0.0161248 -13.4615 2.65861 -0.0437431 -14.4995 2.86225 -0.0270144 -15.5281 3.00357 0.0435447 -16.5466 3.086 0.182995 -17.5545 3.11235 0.412837 -20.1973 3.91589 0.51523 -22.7877 4.67412 0.464145 -25.329 5.37603 0.301645 -27.8239 6.01298 0.0840265 -30.2745 6.5782 -0.113266 -32.6827 7.06641 -0.188126 -35.05 7.47347 1.36891e-13 -11.1439 0.732084 0.155348 -12.2639 1.01909 0.061036 -13.3815 1.22035 -0.00288432 -14.4954 1.34472 -0.0357163 -15.6051 1.39849 -0.0323277 -16.7098 1.3863 0.0171281 -17.8094 1.31168 0.12773 -18.9034 1.17738 0.320604 -21.4271 1.6195 0.410739 -23.9208 2.06027 0.365159 -26.3869 2.48155 0.222482 -28.8274 2.86904 0.0340384 -31.2438 3.21131 -0.132003 -33.6376 3.49916 -0.184496 -36.0096 3.72516 1.54415e-13 -12.0901 -0.0569997 0.150745 -13.2639 0.0386122 0.0724652 -14.4376 0.0498727 0.0129086 -15.6114 -0.0145953 -0.0261017 -16.7851 -0.149128 -0.0387044 -17.9589 -0.349851 -0.0146941 -19.1326 -0.614026 0.0609861 -20.3064 -0.93966 0.208999 -22.5775 -0.88138 0.284182 -24.8486 -0.758979 0.245308 -27.1197 -0.601013 0.126805 -29.3908 -0.429914 -0.0261515 -31.6619 -0.26355 -0.154397 -33.9331 -0.11633 -0.180115 -36.2042 -2.53767e-14 1.83403e-13 0.258909 10.4123 14.0703 0.0309356 11.6186 14.476 -0.0855785 12.7981 14.8728 -0.0969514 13.9387 15.2615 -0.0066957 15.0288 15.6417 0.182705 16.0566 16.0114 0.468845 17.0109 16.3671 0.848852 17.8815 16.7034 0.832997 19.6279 17.5395 0.734735 21.1816 18.6427 0.593174 22.5095 20.0157 0.435424 23.5801 21.6631 0.27891 24.3628 23.5926 0.132977 24.8281 25.8164 2.19886e-13 24.9469 28.3541 -0.511379 9.65815 13.8037 -0.876601 10.8101 14.2395 -1.13831 11.9326 14.642 -1.30012 13.0137 15.0124 -1.36406 14.0415 15.3509 -1.33173 15.005 15.6562 -1.20493 15.8934 15.926 -0.986105 16.6973 16.1563 -1.36821 18.7645 17.0206 -1.73416 20.5875 18.1628 -2.05385 22.1321 19.5899 -2.3067 23.365 21.3117 -2.48019 24.2538 23.3422 -2.56876 24.7668 25.7017 -2.573 24.8721 28.4199 -1.31902 8.94132 13.5781 -1.79495 10.0399 14.0476 -2.17603 11.1052 14.4637 -2.46334 12.1254 14.8279 -2.65724 13.0895 15.1407 -2.75817 13.9869 15.4012 -2.76702 14.8079 15.6079 -2.68548 15.5437 15.7577 -3.41445 17.8008 16.6216 -4.04924 19.7793 17.7643 -4.56454 21.444 19.1969 -4.94283 22.7606 20.9343 -5.17345 23.6954 22.9971 -5.2518 24.2154 25.4138 -5.17862 24.2873 28.2249 -2.13833 8.23618 13.3936 -2.70736 9.28333 13.8958 -3.18955 10.2922 14.3288 -3.5839 11.2519 14.6941 -3.88924 12.1521 14.992 -4.10477 12.9831 15.2223 -4.23038 13.7361 15.3836 -4.26684 14.4035 15.4737 -5.31798 16.7491 16.3237 -6.213 18.7947 17.4479 -6.92843 20.5048 18.861 -7.44732 21.8448 20.5825 -7.7586 22.781 22.6389 -7.8564 23.2806 25.0666 -7.73934 23.3101 27.9157 -2.95502 7.5284 13.2501 -3.60443 8.52535 13.7808 -4.17422 9.47855 14.2305 -4.66163 10.378 14.6002 -5.06411 11.2143 14.8904 -5.37968 11.9788 15.101 -5.60716 12.6639 15.2309 -5.74637 13.2629 15.2782 -7.09155 15.6168 16.1104 -8.23155 17.6599 17.21 -9.14276 19.3569 18.5945 -9.80708 20.6741 20.2875 -10.2114 21.5791 22.3202 -10.347 22.0402 24.7354 -10.2087 22.0255 27.5918 -3.76077 6.8097 13.1475 -4.48099 7.75652 13.7004 -5.12813 8.65388 14.1637 -5.69794 9.49278 14.5385 -6.18662 10.2649 14.8252 -6.59102 10.9626 15.0236 -6.9089 11.5793 15.1331 -7.13908 12.1096 15.1519 -8.74766 14.4074 15.968 -10.1126 16.3921 17.0452 -11.209 18.0299 18.4029 -12.0164 19.2888 20.0673 -12.5186 20.1387 22.0736 -12.703 20.5503 24.4693 -12.5596 20.4943 27.3194 -4.55078 6.07525 13.086 -5.33446 6.97074 13.6528 -6.05117 7.81097 14.125 -6.69536 8.58804 14.5036 -7.26201 9.29467 14.7889 -7.74687 9.92439 14.9809 -8.1466 10.4717 15.0789 -8.45898 10.9322 15.0813 -10.298 13.1206 15.8867 -11.8641 15.0016 16.9486 -13.1302 16.5434 18.2877 -14.0729 17.7165 19.932 -14.6726 18.4938 21.9189 -14.912 18.8497 24.2987 -14.776 18.7587 27.1406 -5.32254 5.32254 13.0655 -6.16413 6.16413 13.637 -6.94463 6.94463 14.1124 -7.6573 7.6573 14.4923 -8.29598 8.29598 14.7773 -8.85528 8.85528 14.9673 -9.33079 9.33079 15.0616 -9.71923 9.71923 15.0587 -11.7528 11.7528 15.8603 -13.4924 13.4924 16.9168 -14.9084 14.9084 18.2493 -15.9746 15.9746 19.8864 -16.6672 16.6672 21.8662 -16.9647 16.9647 24.2401 -16.8466 16.8466 27.0785 -6.07525 4.55078 13.086 -6.97074 5.33446 13.6528 -7.81097 6.05117 14.125 -8.58804 6.69536 14.5036 -9.29467 7.26201 14.7889 -9.92439 7.74687 14.9809 -10.4717 8.1466 15.0789 -10.9322 8.45898 15.0813 -13.1206 10.298 15.8867 -15.0016 11.8641 16.9486 -16.5434 13.1302 18.2877 -17.7165 14.0729 19.932 -18.4938 14.6726 21.9189 -18.8497 14.912 24.2987 -18.7587 14.776 27.1406 -6.8097 3.76077 13.1475 -7.75652 4.48099 13.7004 -8.65388 5.12813 14.1637 -9.49278 5.69794 14.5385 -10.2649 6.18662 14.8252 -10.9626 6.59102 15.0236 -11.5793 6.9089 15.1331 -12.1096 7.13908 15.1519 -14.4074 8.74766 15.968 -16.3921 10.1126 17.0452 -18.0299 11.209 18.4029 -19.2888 12.0164 20.0673 -20.1387 12.5186 22.0736 -20.5503 12.703 24.4693 -20.4943 12.5596 27.3194 -7.5284 2.95502 13.2501 -8.52535 3.60443 13.7808 -9.47855 4.17422 14.2305 -10.378 4.66163 14.6002 -11.2143 5.06411 14.8904 -11.9788 5.37968 15.101 -12.6639 5.60716 15.2309 -13.2629 5.74637 15.2782 -15.6168 7.09155 16.1104 -17.6599 8.23155 17.21 -19.3569 9.14276 18.5945 -20.6741 9.80708 20.2875 -21.5791 10.2114 22.3202 -22.0402 10.347 24.7354 -22.0255 10.2087 27.5918 -8.23618 2.13833 13.3936 -9.28333 2.70736 13.8958 -10.2922 3.18955 14.3288 -11.2519 3.5839 14.6941 -12.1521 3.88924 14.992 -12.9831 4.10477 15.2223 -13.7361 4.23038 15.3836 -14.4035 4.26684 15.4737 -16.7491 5.31798 16.3237 -18.7947 6.213 17.4479 -20.5048 6.92843 18.861 -21.8448 7.44732 20.5825 -22.781 7.7586 22.6389 -23.2806 7.8564 25.0666 -23.3101 7.73934 27.9157 -8.94132 1.31902 13.5781 -10.0399 1.79495 14.0476 -11.1052 2.17603 14.4637 -12.1254 2.46334 14.8279 -13.0895 2.65724 15.1407 -13.9869 2.75817 15.4012 -14.8079 2.76702 15.6079 -15.5437 2.68548 15.7577 -17.8008 3.41445 16.6216 -19.7793 4.04924 17.7643 -21.444 4.56454 19.1969 -22.7606 4.94283 20.9343 -23.6954 5.17345 22.9971 -24.2154 5.2518 25.4138 -24.2873 5.17862 28.2249 -9.65815 0.511379 13.8037 -10.8101 0.876601 14.2395 -11.9326 1.13831 14.642 -13.0137 1.30012 15.0124 -14.0415 1.36406 15.3509 -15.005 1.33173 15.6562 -15.8934 1.20493 15.926 -16.6973 0.986105 16.1563 -18.7645 1.36821 17.0206 -20.5875 1.73416 18.1628 -22.1321 2.05385 19.5899 -23.365 2.3067 21.3117 -24.2538 2.48019 23.3422 -24.7668 2.56876 25.7017 -24.8721 2.573 28.4199 -10.4123 -0.258909 14.0703 -11.6186 -0.0309356 14.476 -12.7981 0.0855785 14.8728 -13.9387 0.0969514 15.2615 -15.0288 0.0066957 15.6417 -16.0566 -0.182705 16.0114 -17.0109 -0.468845 16.3671 -17.8815 -0.848852 16.7034 -19.6279 -0.832997 17.5395 -21.1816 -0.734735 18.6427 -22.5095 -0.593174 20.0157 -23.5801 -0.435424 21.6631 -24.3628 -0.27891 23.5926 -24.8281 -0.132977 25.8164 -24.9469 -2.19886e-13 28.3541 -0.0417576 7.18241 24.1245 0.258118 8.30651 24.4862 0.299847 9.39708 24.9429 0.222265 10.444 25.4881 0.10663 11.4391 26.1074 0.0045738 12.3779 26.7784 -0.0491828 13.261 27.47 -0.0301832 14.0956 28.142 0.374853 13.8205 28.0909 0.60113 13.4096 28.462 0.694955 12.8213 29.2432 0.68166 12.0135 30.4295 0.56929 10.9401 32.0263 0.350125 9.54701 34.0549 2.41568e-13 7.76477 36.5613 -0.174505 6.29507 23.8046 -0.257602 7.58051 24.2505 -0.47944 8.7921 24.7471 -0.754803 9.92896 25.286 -1.02965 10.9892 25.8501 -1.26786 11.9733 26.4134 -1.44474 12.886 26.94 -1.54334 13.7392 27.3837 -1.28668 13.7352 27.3661 -1.11971 13.5316 27.8429 -1.00336 13.0874 28.804 -0.916043 12.3596 30.2465 -0.850696 11.3015 32.1795 -0.813325 9.85752 34.6308 -0.822977 7.95539 37.6588 -0.409848 5.51031 23.5338 -0.7985 6.88956 24.0601 -1.24708 8.17527 24.5995 -1.70147 9.36796 25.1411 -2.12504 10.4675 25.665 -2.49265 11.4763 26.1414 -2.78748 12.4017 26.5299 -2.99925 13.2582 26.7786 -2.89047 13.4557 26.7584 -2.79162 13.4088 27.2878 -2.66808 13.0765 28.3587 -2.49977 12.4162 29.9706 -2.27861 11.3817 32.1354 -2.00682 9.91805 34.8867 -1.69591 7.95369 38.2927 -0.720015 4.80039 23.3123 -1.35774 6.22384 23.9104 -2.00225 7.54557 24.4911 -2.61757 8.76428 25.0411 -3.17824 9.87935 25.5372 -3.66689 10.8936 25.9461 -4.07298 11.8152 26.2231 -4.39208 12.6604 26.3115 -4.42473 12.9987 26.2696 -4.39658 13.0643 26.8182 -4.27528 12.8165 27.9513 -4.0405 12.2138 29.6706 -3.68159 11.2119 31.9905 -3.19549 9.75831 34.949 -2.58461 7.78457 38.6221 -1.08787 4.14815 23.1401 -1.93092 5.57684 23.7976 -2.74432 6.90231 24.4147 -3.50269 8.12041 24.9753 -4.18778 9.22905 25.4533 -4.78776 10.2304 25.8123 -5.29709 11.1328 26.0039 -5.71646 11.9527 25.9671 -5.87875 12.3786 25.8969 -5.91849 12.5183 26.4463 -5.80396 12.3317 27.6113 -5.51323 11.7794 29.3952 -5.03195 10.8197 31.8149 -4.35079 9.40414 34.9111 -3.46213 7.46964 38.7659 -1.5027 3.54289 23.017 -2.51524 4.9442 23.7191 -3.47278 6.24503 24.3645 -4.35626 7.43832 24.9349 -5.15208 8.52014 25.4021 -5.85246 9.4915 25.7269 -6.45585 10.3599 25.8583 -6.9674 11.1412 25.732 -7.2426 11.6083 25.6358 -7.34264 11.7888 26.1783 -7.23523 11.644 27.3575 -6.8959 11.1368 29.1778 -6.30583 10.2293 31.6575 -5.44881 8.87839 34.8399 -4.30685 7.02779 38.8107 -1.95796 2.97805 22.9432 -3.10904 4.32305 23.6727 -4.18728 5.57349 24.3361 -5.17753 6.71963 24.9134 -6.06941 7.75558 25.3749 -6.85815 8.68082 25.6799 -7.54541 9.5015 25.7755 -8.14008 10.2319 25.5955 -8.50685 10.6993 25.4814 -8.65522 10.892 26.0171 -8.5516 10.7728 27.2013 -8.16842 10.3076 29.0394 -7.48197 9.46291 31.5509 -6.46892 8.20155 34.7801 -5.10086 6.47573 38.8151 -2.45011 2.45011 22.9186 -3.71162 3.71162 23.6574 -4.88757 4.88757 24.3269 -5.96565 5.96565 24.9067 -6.93792 6.93792 25.3665 -7.80195 7.80195 25.6649 -8.56194 8.56194 25.7487 -9.22983 9.22983 25.5508 -9.66223 9.66223 25.4304 -9.84283 9.84283 25.9632 -9.73634 9.73634 27.1486 -9.31186 9.31186 28.9921 -8.54068 8.54068 31.5134 -7.39243 7.39243 34.7574 -5.82863 5.82863 38.8128 -2.97805 1.95796 22.9432 -4.32305 3.10904 23.6727 -5.57349 4.18728 24.3361 -6.71963 5.17753 24.9134 -7.75558 6.06941 25.3749 -8.68082 6.85815 25.6799 -9.5015 7.54541 25.7755 -10.2319 8.14008 25.5955 -10.6993 8.50685 25.4814 -10.892 8.65522 26.0171 -10.7728 8.5516 27.2013 -10.3076 8.16842 29.0394 -9.46291 7.48197 31.5509 -8.20155 6.46892 34.7801 -6.47573 5.10086 38.8151 -3.54289 1.5027 23.017 -4.9442 2.51524 23.7191 -6.24503 3.47278 24.3645 -7.43832 4.35626 24.9349 -8.52014 5.15208 25.4021 -9.4915 5.85246 25.7269 -10.3599 6.45585 25.8583 -11.1412 6.9674 25.732 -11.6083 7.2426 25.6358 -11.7888 7.34264 26.1783 -11.644 7.23523 27.3575 -11.1368 6.8959 29.1778 -10.2293 6.30583 31.6575 -8.87839 5.44881 34.8399 -7.02779 4.30685 38.8107 -4.14815 1.08787 23.1401 -5.57684 1.93092 23.7976 -6.90231 2.74432 24.4147 -8.12041 3.50269 24.9753 -9.22905 4.18778 25.4533 -10.2304 4.78776 25.8123 -11.1328 5.29709 26.0039 -11.9527 5.71646 25.9671 -12.3786 5.87875 25.8969 -12.5183 5.91849 26.4463 -12.3317 5.80396 27.6113 -11.7794 5.51323 29.3952 -10.8197 5.03195 31.8149 -9.40414 4.35079 34.9111 -7.46964 3.46213 38.7659 -4.80039 0.720015 23.3123 -6.22384 1.35774 23.9104 -7.54557 2.00225 24.4911 -8.76428 2.61757 25.0411 -9.87935 3.17824 25.5372 -10.8936 3.66689 25.9461 -11.8152 4.07298 26.2231 -12.6604 4.39208 26.3115 -12.9987 4.42473 26.2696 -13.0643 4.39658 26.8182 -12.8165 4.27528 27.9513 -12.2138 4.0405 29.6706 -11.2119 3.68159 31.9905 -9.75831 3.19549 34.949 -7.78457 2.58461 38.6221 -5.51031 0.409848 23.5338 -6.88956 0.7985 24.0601 -8.17527 1.24708 24.5995 -9.36796 1.70147 25.1411 -10.4675 2.12504 25.665 -11.4763 2.49265 26.1414 -12.4017 2.78748 26.5299 -13.2582 2.99925 26.7786 -13.4557 2.89047 26.7584 -13.4088 2.79162 27.2878 -13.0765 2.66808 28.3587 -12.4162 2.49977 29.9706 -11.3817 2.27861 32.1354 -9.91805 2.00682 34.8867 -7.95369 1.69591 38.2927 -6.29507 0.174505 23.8046 -7.58051 0.257602 24.2505 -8.7921 0.47944 24.7471 -9.92896 0.754803 25.286 -10.9892 1.02965 25.8501 -11.9733 1.26786 26.4134 -12.886 1.44474 26.94 -13.7392 1.54334 27.3837 -13.7352 1.28668 27.3661 -13.5316 1.11971 27.8429 -13.0874 1.00336 28.804 -12.3596 0.916043 30.2465 -11.3015 0.850696 32.1795 -9.85752 0.813325 34.6308 -7.95539 0.822977 37.6588 -7.18241 0.0417576 24.1245 -8.30651 -0.258118 24.4862 -9.39708 -0.299847 24.9429 -10.444 -0.222265 25.4881 -11.4391 -0.10663 26.1074 -12.3779 -0.0045738 26.7784 -13.261 0.0491828 27.47 -14.0956 0.0301832 28.142 -13.8205 -0.374853 28.0909 -13.4096 -0.60113 28.462 -12.8213 -0.694955 29.2432 -12.0135 -0.68166 30.4295 -10.9401 -0.56929 32.0263 -9.54701 -0.350125 34.0549 -7.76477 -2.41568e-13 36.5613 -0.224711 6.63292 25.5595 0.216925 7.66245 25.7837 0.320003 8.66686 26.0919 0.258913 9.63563 26.4863 0.133665 10.5577 26.9699 0.00811912 11.4214 27.5468 -0.0736415 12.2141 28.222 -0.0796071 12.922 29.0016 0.36601 12.3403 29.0873 0.609715 11.698 29.3192 0.701294 10.974 29.7053 0.67325 10.1449 30.2557 0.544328 9.18441 30.9831 0.321373 8.06256 31.9034 1.56335e-13 6.74462 33.0361 -0.267978 5.76073 25.3722 -0.242671 6.97807 25.5766 -0.417478 8.12861 25.863 -0.680115 9.20968 26.2293 -0.960653 10.2144 26.6734 -1.2117 11.1338 27.1935 -1.39932 11.9582 27.7881 -1.49843 12.6776 28.4562 -1.15351 12.3356 28.604 -0.933292 11.8748 28.9339 -0.796959 11.2752 29.4568 -0.717391 10.512 30.189 -0.678804 9.55459 31.1541 -0.675668 8.36418 32.3852 -0.712787 6.89022 33.9294 -0.42222 4.99951 25.2137 -0.727922 6.32929 25.4021 -1.14188 7.57362 25.6706 -1.58807 8.72923 26.0134 -2.01554 9.78879 26.4245 -2.38804 10.7436 26.8972 -2.67896 11.585 27.4246 -2.86864 12.305 27.9995 -2.6248 12.1443 28.1856 -2.43604 11.8227 28.5773 -2.26863 11.3212 29.1873 -2.09921 10.6151 30.0364 -1.91288 9.67204 31.1577 -1.70214 8.44742 32.602 -1.46657 6.87809 34.4472 -0.65816 4.32 25.084 -1.2324 5.70667 25.2599 -1.8527 7.00192 25.5138 -2.46445 8.19859 25.8377 -3.0286 9.28699 26.2222 -3.51632 10.2573 26.6568 -3.90617 11.1007 27.13 -4.18261 11.8104 27.6297 -4.03533 11.7805 27.8382 -3.88092 11.5621 28.2674 -3.69117 11.1373 28.9305 -3.4453 10.4822 29.8516 -3.12789 9.56418 31.0716 -2.72721 8.33622 32.6571 -2.23335 6.72661 34.7164 -0.957594 3.70397 24.9832 -1.75193 5.10394 25.1496 -2.54948 6.41365 25.3924 -3.30844 7.62122 25.7018 -3.99726 8.71397 26.0659 -4.59193 9.68037 26.4712 -5.07463 10.5111 26.9028 -5.43286 11.1996 27.3446 -5.37323 11.2569 27.5654 -5.25177 11.1113 28.0163 -5.04455 10.7456 28.7102 -4.73234 10.1374 29.6734 -4.2983 9.25523 30.9527 -3.72509 8.05201 32.6277 -2.99057 6.45222 34.8336 -1.30906 3.13998 24.9112 -2.28385 4.51685 25.0709 -3.2318 5.80899 25.306 -4.11903 6.99994 25.6052 -4.91877 8.07406 25.9549 -5.61024 9.01804 26.3395 -6.1781 9.82166 26.7416 -6.61204 10.4784 27.1424 -6.62708 10.5849 27.3695 -6.5335 10.4862 27.8321 -6.31048 10.1657 28.5426 -5.93958 9.60242 29.5287 -5.4019 8.76693 30.8413 -4.67382 7.61424 32.5695 -3.71974 6.06977 34.8693 -1.70556 2.62102 24.8679 -2.82659 3.94261 25.0238 -3.89926 5.18818 25.2542 -4.89498 6.33714 25.5473 -5.79028 7.37115 25.8885 -6.56663 8.27517 26.2607 -7.21046 9.03801 26.6453 -7.713 9.65274 27.0217 -7.78586 9.7753 27.2516 -7.7117 9.70185 27.7197 -7.47186 9.41568 28.4382 -7.04802 8.89706 29.4353 -6.41878 8.11915 30.7643 -5.55417 7.04085 32.5202 -4.40538 5.59278 34.8721 -2.14328 2.14328 24.8535 -3.37948 3.37948 25.0081 -4.5515 4.5515 25.237 -5.63488 5.63488 25.5281 -6.60878 6.60878 25.8664 -7.45648 7.45648 26.2346 -8.16571 8.16571 26.6133 -8.7288 8.7288 26.9815 -8.83879 8.83879 27.2123 -8.77241 8.77241 27.682 -8.51231 8.51231 28.4028 -8.03969 8.03969 29.4031 -7.33047 7.33047 30.737 -6.3487 6.3487 32.5014 -5.0339 5.0339 34.8699 -2.62102 1.70556 24.8679 -3.94261 2.82659 25.0238 -5.18818 3.89926 25.2542 -6.33714 4.89498 25.5473 -7.37115 5.79028 25.8885 -8.27517 6.56663 26.2607 -9.03801 7.21046 26.6453 -9.65274 7.713 27.0217 -9.7753 7.78586 27.2516 -9.70185 7.7117 27.7197 -9.41568 7.47186 28.4382 -8.89706 7.04802 29.4353 -8.11915 6.41878 30.7643 -7.04085 5.55417 32.5202 -5.59278 4.40538 34.8721 -3.13998 1.30906 24.9112 -4.51685 2.28385 25.0709 -5.80899 3.2318 25.306 -6.99994 4.11903 25.6052 -8.07406 4.91877 25.9549 -9.01804 5.61024 26.3395 -9.82166 6.1781 26.7416 -10.4784 6.61204 27.1424 -10.5849 6.62708 27.3695 -10.4862 6.5335 27.8321 -10.1657 6.31048 28.5426 -9.60242 5.93958 29.5287 -8.76693 5.4019 30.8413 -7.61424 4.67382 32.5695 -6.06977 3.71974 34.8693 -3.70397 0.957594 24.9832 -5.10394 1.75193 25.1496 -6.41365 2.54948 25.3924 -7.62122 3.30844 25.7018 -8.71397 3.99726 26.0659 -9.68037 4.59193 26.4712 -10.5111 5.07463 26.9028 -11.1996 5.43286 27.3446 -11.2569 5.37323 27.5654 -11.1113 5.25177 28.0163 -10.7456 5.04455 28.7102 -10.1374 4.73234 29.6734 -9.25523 4.2983 30.9527 -8.05201 3.72509 32.6277 -6.45222 2.99057 34.8336 -4.32 0.65816 25.084 -5.70667 1.2324 25.2599 -7.00192 1.8527 25.5138 -8.19859 2.46445 25.8377 -9.28699 3.0286 26.2222 -10.2573 3.51632 26.6568 -11.1007 3.90617 27.13 -11.8104 4.18261 27.6297 -11.7805 4.03533 27.8382 -11.5621 3.88092 28.2674 -11.1373 3.69117 28.9305 -10.4822 3.4453 29.8516 -9.56418 3.12789 31.0716 -8.33622 2.72721 32.6571 -6.72661 2.23335 34.7164 -4.99951 0.42222 25.2137 -6.32929 0.727922 25.4021 -7.57362 1.14188 25.6706 -8.72923 1.58807 26.0134 -9.78879 2.01554 26.4245 -10.7436 2.38804 26.8972 -11.585 2.67896 27.4246 -12.305 2.86864 27.9995 -12.1443 2.6248 28.1856 -11.8227 2.43604 28.5773 -11.3212 2.26863 29.1873 -10.6151 2.09921 30.0364 -9.67204 1.91288 31.1577 -8.44742 1.70214 32.602 -6.87809 1.46657 34.4472 -5.76073 0.267978 25.3722 -6.97807 0.242671 25.5766 -8.12861 0.417478 25.863 -9.20968 0.680115 26.2293 -10.2144 0.960653 26.6734 -11.1338 1.2117 27.1935 -11.9582 1.39932 27.7881 -12.6776 1.49843 28.4562 -12.3356 1.15351 28.604 -11.8748 0.933292 28.9339 -11.2752 0.796959 29.4568 -10.512 0.717391 30.189 -9.55459 0.678804 31.1541 -8.36418 0.675668 32.3852 -6.89022 0.712787 33.9294 -6.63292 0.224711 25.5595 -7.66245 -0.216925 25.7837 -8.66686 -0.320003 26.0919 -9.63563 -0.258913 26.4863 -10.5577 -0.133665 26.9699 -11.4214 -0.00811912 27.5468 -12.2141 0.0736415 28.222 -12.922 0.0796071 29.0016 -12.3403 -0.36601 29.0873 -11.698 -0.609715 29.3192 -10.974 -0.701294 29.7053 -10.1449 -0.67325 30.2557 -9.18441 -0.544328 30.9831 -8.06256 -0.321373 31.9034 -6.74462 -1.56335e-13 33.0361 -0.372884 6.15564 26.8624 0.175848 7.08734 27.0349 0.330468 7.99751 27.2763 0.290875 8.87678 27.5877 0.168173 9.71551 27.9706 0.0317351 10.5037 28.4271 -0.0712327 11.2308 28.9595 -0.106628 11.8857 29.571 0.33382 11.2041 29.3993 0.57012 10.5018 29.3171 0.653477 9.76599 29.3266 0.619248 8.98284 29.4308 0.49092 8.13772 29.6334 0.282516 7.21482 29.939 2.5019e-14 6.19688 30.3532 -0.357515 5.31416 26.7077 -0.241296 6.44854 26.8593 -0.366017 7.51623 27.0829 -0.602229 8.51688 27.3755 -0.871838 9.44504 27.7338 -1.12315 10.2932 28.1545 -1.31974 11.0533 28.6339 -1.43495 11.717 29.1684 -1.06726 11.2442 29.0735 -0.834922 10.6939 29.0918 -0.696665 10.0555 29.226 -0.623927 9.31567 29.481 -0.598037 8.45845 29.8647 -0.608594 7.46445 30.3886 -0.652704 6.30942 31.0694 -0.455939 4.58648 26.5768 -0.682887 5.84406 26.7114 -1.04809 7.01488 26.9201 -1.46387 8.09805 27.1968 -1.87328 9.08751 27.5344 -2.23675 9.9756 27.9249 -2.52571 10.7547 28.3596 -2.71932 11.4182 28.8294 -2.42589 11.1061 28.7869 -2.20489 10.675 28.8724 -2.0234 10.1157 29.0883 -1.85834 9.41611 29.4409 -1.6944 8.56016 29.9417 -1.52269 7.52634 30.6101 -1.34008 6.28486 31.4761 -0.638566 3.943 26.4696 -1.1431 5.26515 26.5909 -1.71563 6.4944 26.7876 -2.29356 7.62553 27.0513 -2.83348 8.64979 27.372 -3.30398 9.55794 27.738 -3.68211 10.3419 28.1365 -3.95146 10.9958 28.5536 -3.72939 10.8026 28.5462 -3.52297 10.4625 28.6754 -3.30617 9.96762 28.943 -3.06035 9.30692 29.3559 -2.77248 8.4651 29.9291 -2.43366 7.41996 30.6888 -2.03795 6.13809 31.6791 -0.886904 3.36523 26.3863 -1.61813 4.70592 26.4973 -2.36838 5.95555 26.6848 -3.09044 7.10352 26.9386 -3.74954 8.13763 27.2463 -4.31973 9.04659 27.5934 -4.782 9.82141 27.9638 -5.12323 10.4562 28.3403 -4.96572 10.3453 28.3556 -4.77357 10.0723 28.5123 -4.52641 9.63001 28.8111 -4.20913 9.0084 29.2595 -3.81013 8.1933 29.8747 -3.31947 7.16304 30.689 -2.7266 5.88271 31.7589 -1.18927 2.84148 26.3268 -2.10553 4.16237 26.4307 -3.00608 5.39899 26.6117 -3.85341 6.53541 26.8584 -4.61844 7.55602 27.1568 -5.2789 8.44738 27.4905 -5.81855 9.19932 27.8411 -6.22666 9.80563 28.1887 -6.12324 9.74497 28.2179 -5.94198 9.51888 28.3909 -5.66702 9.11996 28.7075 -5.28594 8.53901 29.1752 -4.78789 7.76309 29.8131 -4.16119 6.77189 30.6577 -3.3897 5.53121 31.7754 -1.53849 2.3646 26.2911 -2.60389 3.63182 26.3907 -3.62839 4.82528 26.5679 -4.58111 5.92408 26.8104 -5.43697 6.9094 27.1033 -6.17637 7.76576 27.429 -6.78505 8.48178 27.7677 -7.254 9.05059 28.098 -7.19073 9.01216 28.1347 -7.01417 8.81585 28.3162 -6.71193 8.45343 28.6417 -6.2735 7.91593 29.1187 -5.68817 7.19149 29.7672 -4.94212 6.26175 30.6266 -4.01342 5.09518 31.7694 -1.93068 1.93068 26.2792 -3.11262 3.11262 26.3774 -4.23492 4.23492 26.5533 -5.27194 5.27194 26.7944 -6.2018 6.2018 27.0855 -7.00704 7.00704 27.4085 -7.67493 7.67493 27.7433 -8.19773 8.19773 28.0678 -8.15725 8.15725 28.1069 -7.97655 7.97655 28.291 -7.64576 7.64576 28.6191 -7.15546 7.15546 29.0989 -6.49462 6.49462 29.7505 -5.6471 5.6471 30.6143 -4.58564 4.58564 31.7648 -2.3646 1.53849 26.2911 -3.63182 2.60389 26.3907 -4.82528 3.62839 26.5679 -5.92408 4.58111 26.8104 -6.9094 5.43697 27.1033 -7.76576 6.17637 27.429 -8.48178 6.78505 27.7677 -9.05059 7.254 28.098 -9.01216 7.19073 28.1347 -8.81585 7.01417 28.3162 -8.45343 6.71193 28.6417 -7.91593 6.2735 29.1187 -7.19149 5.68817 29.7672 -6.26175 4.94212 30.6266 -5.09518 4.01342 31.7694 -2.84148 1.18927 26.3268 -4.16237 2.10553 26.4307 -5.39899 3.00608 26.6117 -6.53541 3.85341 26.8584 -7.55602 4.61844 27.1568 -8.44738 5.2789 27.4905 -9.19932 5.81855 27.8411 -9.80563 6.22666 28.1887 -9.74497 6.12324 28.2179 -9.51888 5.94198 28.3909 -9.11996 5.66702 28.7075 -8.53901 5.28594 29.1752 -7.76309 4.78789 29.8131 -6.77189 4.16119 30.6577 -5.53121 3.3897 31.7754 -3.36523 0.886904 26.3863 -4.70592 1.61813 26.4973 -5.95555 2.36838 26.6848 -7.10352 3.09044 26.9386 -8.13763 3.74954 27.2463 -9.04659 4.31973 27.5934 -9.82141 4.782 27.9638 -10.4562 5.12323 28.3403 -10.3453 4.96572 28.3556 -10.0723 4.77357 28.5123 -9.63001 4.52641 28.8111 -9.0084 4.20913 29.2595 -8.1933 3.81013 29.8747 -7.16304 3.31947 30.689 -5.88271 2.7266 31.7589 -3.943 0.638566 26.4696 -5.26515 1.1431 26.5909 -6.4944 1.71563 26.7876 -7.62553 2.29356 27.0513 -8.64979 2.83348 27.372 -9.55794 3.30398 27.738 -10.3419 3.68211 28.1365 -10.9958 3.95146 28.5536 -10.8026 3.72939 28.5462 -10.4625 3.52297 28.6754 -9.96762 3.30617 28.943 -9.30692 3.06035 29.3559 -8.4651 2.77248 29.9291 -7.41996 2.43366 30.6888 -6.13809 2.03795 31.6791 -4.58648 0.455939 26.5768 -5.84406 0.682887 26.7114 -7.01488 1.04809 26.9201 -8.09805 1.46387 27.1968 -9.08751 1.87328 27.5344 -9.9756 2.23675 27.9249 -10.7547 2.52571 28.3596 -11.4182 2.71932 28.8294 -11.1061 2.42589 28.7869 -10.675 2.20489 28.8724 -10.1157 2.0234 29.0883 -9.41611 1.85834 29.4409 -8.56016 1.6944 29.9417 -7.52634 1.52269 30.6101 -6.28486 1.34008 31.4761 -5.31416 0.357515 26.7077 -6.44854 0.241296 26.8593 -7.51623 0.366017 27.0829 -8.51688 0.602229 27.3755 -9.44504 0.871838 27.7338 -10.2932 1.12315 28.1545 -11.0533 1.31974 28.6339 -11.717 1.43495 29.1684 -11.2442 1.06726 29.0735 -10.6939 0.834922 29.0918 -10.0555 0.696665 29.226 -9.31567 0.623927 29.481 -8.45845 0.598037 29.8647 -7.46445 0.608594 30.3886 -6.30942 0.652704 31.0694 -6.15564 0.372884 26.8624 -7.08734 -0.175848 27.0349 -7.99751 -0.330468 27.2763 -8.87678 -0.290875 27.5877 -9.71551 -0.168173 27.9706 -10.5037 -0.0317351 28.4271 -11.2308 0.0712327 28.9595 -11.8857 0.106628 29.571 -11.2041 -0.33382 29.3993 -10.5018 -0.57012 29.3171 -9.76599 -0.653477 29.3266 -8.98284 -0.619248 29.4308 -8.13772 -0.49092 29.6334 -7.21482 -0.282516 29.939 -6.19688 -2.5019e-14 30.3532 -0.504727 5.70101 28.1653 0.138968 6.52985 28.2876 0.340145 7.34185 28.4629 0.322 8.12929 28.6919 0.205072 8.88434 28.975 0.0631878 9.59904 29.3129 -0.0539463 10.2652 29.7067 -0.110456 10.8745 30.1572 0.32472 10.1193 29.7541 0.551501 9.38379 29.3952 0.623509 8.6614 29.0807 0.579622 7.9457 28.8108 0.448264 7.23009 28.5856 0.250139 6.50783 28.4058 4.16357e-14 5.77196 28.2719 -0.441648 4.8956 28.0432 -0.239321 5.93742 28.1434 -0.314407 6.91424 28.3044 -0.521566 7.82833 28.5226 -0.775642 8.67605 28.7941 -1.02141 9.45153 29.1144 -1.22047 10.1483 29.4786 -1.34486 10.7603 29.8813 -0.960993 10.1876 29.5691 -0.724095 9.579 29.3136 -0.591519 8.93168 29.1131 -0.532413 8.24165 28.9671 -0.524607 7.50397 28.8753 -0.552598 6.7127 28.8388 -0.606284 5.8607 28.8598 -0.49308 4.20471 27.9398 -0.640537 5.37756 28.022 -0.953712 6.464 28.1708 -1.33405 7.46583 28.3798 -1.71941 8.37855 28.6412 -2.06746 9.19568 28.9464 -2.3481 9.91086 29.2855 -2.53958 10.5189 29.6477 -2.20881 10.0892 29.4015 -1.96816 9.5822 29.2181 -1.78459 8.9977 29.0943 -1.63437 8.33397 29.0281 -1.50074 7.58793 29.0194 -1.37242 6.7548 29.0702 -1.24256 5.82751 29.1856 -0.629635 3.59894 27.8552 -1.05946 4.84224 27.9231 -1.57786 5.99276 28.0621 -2.11485 7.04756 28.2634 -2.62321 7.99905 28.5165 -3.069