<?xml version="1.0"?> 
<VTKFile type="StructuredGrid" version="0.1"> 
<StructuredGrid WholeExtent="0 14 0 14 0 29"> 
<Piece Extent="0 14 0 14 0 29"> 
<PointData>
<DataArray type="Float32" Name="efield" format="ascii" NumberOfComponents="3"> 
0.0151063 1.7279 -3.57907 -0.000474236 1.90787 -3.42698 -0.013579 2.08784 -3.26024 -0.0277031 2.26781 -3.07886 -0.0450108 2.44779 -2.88283 -0.0669141 2.62776 -2.67216 -0.0943735 2.80773 -2.44684 -0.128065 2.9877 -2.20688 -0.135293 3.22965 -1.94988 -0.127542 3.4716 -1.67346 -0.109636 3.71355 -1.37761 -0.0852967 3.9555 -1.06235 -0.0574402 4.19745 -0.727654 -0.0283858 4.4394 -0.373539 8.83433e-16 4.68135 0 0.111808 1.57992 -3.68744 0.139444 1.76182 -3.54473 0.163565 1.94202 -3.38593 0.182789 2.1207 -3.21104 0.196231 2.29797 -3.02006 0.203308 2.47391 -2.81299 0.20363 2.64859 -2.58982 0.196931 2.82204 -2.35057 0.233911 3.09913 -2.09062 0.276732 3.37219 -1.8054 0.322097 3.64161 -1.49488 0.367436 3.90774 -1.15909 0.410726 4.17084 -0.798009 0.45036 4.4311 -0.411647 0.485044 4.68872 8.84782e-17 0.225723 1.44915 -3.77914 0.284696 1.62833 -3.64437 0.337437 1.80482 -3.49229 0.383453 1.97876 -3.32289 0.422442 2.15027 -3.13618 0.454229 2.31942 -2.93215 0.478716 2.48626 -2.71081 0.495866 2.65085 -2.47215 0.575878 2.94681 -2.20971 0.655169 3.23576 -1.91703 0.731556 3.51828 -1.59411 0.803342 3.79485 -1.24095 0.8692 4.06584 -0.857541 0.928088 4.33158 -0.443892 0.979186 4.59231 1.65652e-16 0.347954 1.32669 -3.85416 0.430865 1.50077 -3.72589 0.50641 1.67133 -3.57931 0.57448 1.83849 -3.4144 0.635041 2.00232 -3.23118 0.688112 2.16289 -3.02965 0.733748 2.32025 -2.8098 0.772024 2.47443 -2.57163 0.892738 2.77685 -2.30715 1.00807 3.07003 -2.00837 1.11666 3.35459 -1.6753 1.21745 3.63104 -1.30792 1.30966 3.89981 -0.906248 1.39269 4.16125 -0.470274 1.46607 4.41565 2.25544e-16 0.473611 1.20767 -3.91252 0.575514 1.3752 -3.7893 0.669741 1.53843 -3.64699 0.756345 1.69745 -3.48558 0.83541 1.85233 -3.30508 0.90704 2.00311 -3.10548 0.971354 2.14985 -2.88679 1.02848 2.29259 -2.649 1.18689 2.59188 -2.38293 1.33667 2.88028 -2.07942 1.47708 3.15838 -1.73844 1.60753 3.42668 -1.36001 1.72764 3.68558 -0.944131 1.83713 3.93546 -0.490793 1.93583 4.1766 2.64731e-16 0.599878 1.08925 -3.9542 0.717303 1.24917 -3.83459 0.827203 1.40403 -3.69533 0.92969 1.55389 -3.53642 1.02489 1.69883 -3.35786 1.11292 1.83891 -3.15964 1.19394 1.97419 -2.94178 1.26807 2.10473 -2.70426 1.46075 2.39331 -2.43707 1.64266 2.66989 -2.13016 1.81346 2.93496 -1.78355 1.97297 3.18898 -1.39722 2.12105 3.43232 -0.971191 2.25767 3.66532 -0.50545 2.38285 3.88826 2.82049e-16 0.725135 0.969819 -3.97921 0.85557 1.12114 -3.86176 0.978904 1.26664 -3.72434 1.09526 1.40641 -3.56692 1.20475 1.54053 -3.38953 1.30751 1.66909 -3.19214 1.40367 1.79217 -2.97477 1.49335 1.90985 -2.73742 1.71658 2.18159 -2.46955 1.92774 2.44072 -2.16061 2.12684 2.68763 -1.81061 2.31391 2.92269 -1.41955 2.48904 3.14621 -0.987427 2.65235 3.35847 -0.514244 2.80399 3.55976 2.78318e-16 0.848536 0.848536 -3.98754 0.990122 0.990122 -3.87082 1.1252 1.1252 -3.73401 1.25386 1.25386 -3.57709 1.37623 1.37623 -3.40008 1.49241 1.49241 -3.20298 1.6025 1.6025 -2.98577 1.70662 1.70662 -2.74847 1.95634 1.95634 -2.48037 2.19343 2.19343 -2.17076 2.4181 2.4181 -1.81963 2.63057 2.63057 -1.42699 2.83108 2.83108 -0.992839 3.01985 3.01985 -0.517175 3.1971 3.1971 2.56064e-16 0.969819 0.725135 -3.97921 1.12114 0.85557 -3.86176 1.26664 0.978904 -3.72434 1.40641 1.09526 -3.56692 1.54053 1.20475 -3.38953 1.66909 1.30751 -3.19214 1.79217 1.40367 -2.97477 1.90985 1.49335 -2.73742 2.18159 1.71658 -2.46955 2.44072 1.92774 -2.16061 2.68763 2.12684 -1.81061 2.92269 2.31391 -1.41955 3.14621 2.48904 -0.987427 3.35847 2.65235 -0.514244 3.55976 2.80399 2.19228e-16 1.08925 0.599878 -3.9542 1.24917 0.717303 -3.83459 1.40403 0.827203 -3.69533 1.55389 0.92969 -3.53642 1.69883 1.02489 -3.35786 1.83891 1.11292 -3.15964 1.97419 1.19394 -2.94178 2.10473 1.26807 -2.70426 2.39331 1.46075 -2.43707 2.66989 1.64266 -2.13016 2.93496 1.81346 -1.78355 3.18898 1.97297 -1.39722 3.43232 2.12105 -0.971191 3.66532 2.25767 -0.50545 3.88826 2.38285 1.72849e-16 1.20767 0.473611 -3.91252 1.3752 0.575514 -3.7893 1.53843 0.669741 -3.64699 1.69745 0.756345 -3.48558 1.85233 0.83541 -3.30508 2.00311 0.90704 -3.10548 2.14985 0.971354 -2.88679 2.29259 1.02848 -2.649 2.59188 1.18689 -2.38293 2.88028 1.33667 -2.07942 3.15838 1.47708 -1.73844 3.42668 1.60753 -1.36001 3.68558 1.72764 -0.944131 3.93546 1.83713 -0.490793 4.1766 1.93583 1.22701e-16 1.32669 0.347954 -3.85416 1.50077 0.430865 -3.72589 1.67133 0.50641 -3.57931 1.83849 0.57448 -3.4144 2.00232 0.635041 -3.23118 2.16289 0.688112 -3.02965 2.32025 0.733748 -2.8098 2.47443 0.772024 -2.57163 2.77685 0.892738 -2.30715 3.07003 1.00807 -2.00837 3.35459 1.11666 -1.6753 3.63104 1.21745 -1.30792 3.89981 1.30966 -0.906248 4.16125 1.39269 -0.470274 4.41565 1.46607 7.48847e-17 1.44915 0.225723 -3.77914 1.62833 0.284696 -3.64437 1.80482 0.337437 -3.49229 1.97876 0.383453 -3.32289 2.15027 0.422442 -3.13618 2.31942 0.454229 -2.93215 2.48626 0.478716 -2.71081 2.65085 0.495866 -2.47215 2.94681 0.575878 -2.20971 3.23576 0.655169 -1.91703 3.51828 0.731556 -1.59411 3.79485 0.803342 -1.24095 4.06584 0.8692 -0.857541 4.33158 0.928088 -0.443892 4.59231 0.979186 3.53207e-17 1.57992 0.111808 -3.68744 1.76182 0.139444 -3.54473 1.94202 0.163565 -3.38593 2.1207 0.182789 -3.21104 2.29797 0.196231 -3.02006 2.47391 0.203308 -2.81299 2.64859 0.20363 -2.58982 2.82204 0.196931 -2.35057 3.09913 0.233911 -2.09062 3.37219 0.276732 -1.8054 3.64161 0.322097 -1.49488 3.90774 0.367436 -1.15909 4.17084 0.410726 -0.798009 4.4311 0.45036 -0.411647 4.68872 0.485044 9.15299e-18 1.7279 0.0151063 -3.57907 1.90787 -0.000474236 -3.42698 2.08784 -0.013579 -3.26024 2.26781 -0.0277031 -3.07886 2.44779 -0.0450108 -2.88283 2.62776 -0.0669141 -2.67216 2.80773 -0.0943735 -2.44684 2.9877 -0.128065 -2.20688 3.22965 -0.135293 -1.94988 3.4716 -0.127542 -1.67346 3.71355 -0.109636 -1.37761 3.9555 -0.0852967 -1.06235 4.19745 -0.0574402 -0.727654 4.4394 -0.0283858 -0.373539 4.68135 -2.94478e-16 0 0.0178995 1.4653 -3.21522 -0.00277633 1.60804 -3.07764 -0.0177129 1.75079 -2.92698 -0.0308739 1.89354 -2.76324 -0.0447139 2.03628 -2.58641 -0.060834 2.17903 -2.3965 -0.0803236 2.32177 -2.1935 -0.103949 2.46452 -1.97742 -0.110976 2.64128 -1.74624 -0.105635 2.81805 -1.49796 -0.0917107 2.99481 -1.23258 -0.0721204 3.17157 -0.950087 -0.049152 3.34833 -0.650495 -0.0246239 3.52509 -0.3338 4.65726e-16 3.70186 0 0.0992723 1.3399 -3.31325 0.116853 1.48652 -3.18414 0.133973 1.63148 -3.04061 0.148842 1.77501 -2.88267 0.160304 1.91725 -2.71031 0.167585 2.05832 -2.52354 0.170154 2.19827 -2.32234 0.167642 2.33716 -2.10674 0.19354 2.5417 -1.87276 0.224618 2.74313 -1.61645 0.258279 2.94178 -1.33781 0.292499 3.13792 -1.03685 0.325684 3.33175 -0.713562 0.356564 3.52344 -0.367945 0.384119 3.71312 6.28198e-17 0.1953 1.22915 -3.39619 0.240569 1.37505 -3.27425 0.282313 1.51837 -3.13676 0.319721 1.65936 -2.98373 0.352267 1.79815 -2.81515 0.379607 1.93487 -2.63103 0.401519 2.0696 -2.43137 0.417862 2.20239 -2.21616 0.476027 2.42204 -1.97981 0.534194 2.63632 -1.71671 0.590636 2.84569 -1.42686 0.644008 3.05053 -1.11027 0.693257 3.25112 -0.766926 0.737555 3.44773 -0.396837 0.776247 3.64054 1.17735e-16 0.298429 1.12551 -3.46406 0.364769 1.2682 -3.34797 0.426085 1.40765 -3.21542 0.482032 1.54403 -3.06641 0.532403 1.67747 -2.90093 0.577082 1.80808 -2.71898 0.616015 1.93593 -2.52057 0.649192 2.06108 -2.30569 0.737999 2.28622 -2.0674 0.823117 2.50429 -1.79874 0.903458 2.71578 -1.49972 0.97819 2.9211 -1.17034 1.04668 3.12057 -0.810588 1.10843 3.31449 -0.420476 1.16308 3.50307 1.60421e-16 0.404503 1.02482 -3.51684 0.487466 1.16277 -3.40532 0.564748 1.29686 -3.27661 0.636238 1.42724 -3.13072 0.701891 1.55402 -2.96764 0.761709 1.67729 -2.78739 0.815726 1.79712 -2.58995 0.864002 1.91357 -2.37533 0.981252 2.13674 -2.13552 1.09223 2.3516 -1.86254 1.19633 2.55861 -1.55639 1.29309 2.75817 -1.21706 1.38218 2.9506 -0.844547 1.46339 3.13618 -0.438862 1.53655 3.31514 1.88391e-16 0.511132 0.924673 -3.55454 0.607572 1.05673 -3.44627 0.698165 1.18437 -3.32031 0.782913 1.30769 -3.17665 0.861852 1.42681 -3.0153 0.935044 1.5418 -2.83625 1.00256 1.65274 -2.6395 1.0645 1.7597 -2.42506 1.20764 1.97503 -2.18418 1.34277 2.18122 -1.90812 1.46965 2.37867 -1.59686 1.58808 2.56773 -1.25043 1.69798 2.74869 -0.868803 1.79929 2.92182 -0.451994 1.89201 3.08734 2.00784e-16 0.616938 0.823709 -3.57716 0.724552 0.94883 -3.47085 0.82645 1.069 -3.34653 0.92269 1.18432 -3.20421 1.01335 1.29489 -3.04389 1.0985 1.40079 -2.86557 1.17825 1.50211 -2.66924 1.25268 1.59892 -2.45491 1.41889 1.80167 -2.21338 1.57605 1.99485 -1.93546 1.72414 2.17879 -1.62115 1.86319 2.35374 -1.27045 1.99327 2.51995 -0.883357 2.11445 2.67765 -0.459874 2.22684 2.82706 1.98167e-16 0.721204 0.721204 -3.5847 0.838253 0.838253 -3.47904 0.949906 0.949906 -3.35527 1.05625 1.05625 -3.2134 1.15738 1.15738 -3.05342 1.25337 1.25337 -2.87534 1.34432 1.34432 -2.67915 1.43032 1.43032 -2.46485 1.61652 1.61652 -2.22311 1.79317 1.79317 -1.94457 1.96045 1.96045 -1.62925 2.11852 2.11852 -1.27712 2.26755 2.26755 -0.888208 2.40772 2.40772 -0.462501 2.5392 2.5392 1.82333e-16 0.823709 0.616938 -3.57716 0.94883 0.724552 -3.47085 1.069 0.82645 -3.34653 1.18432 0.92269 -3.20421 1.29489 1.01335 -3.04389 1.40079 1.0985 -2.86557 1.50211 1.17825 -2.66924 1.59892 1.25268 -2.45491 1.80167 1.41889 -2.21338 1.99485 1.57605 -1.93546 2.17879 1.72414 -1.62115 2.35374 1.86319 -1.27045 2.51995 1.99327 -0.883357 2.67765 2.11445 -0.459874 2.82706 2.22684 1.56094e-16 0.924673 0.511132 -3.55454 1.05673 0.607572 -3.44627 1.18437 0.698165 -3.32031 1.30769 0.782913 -3.17665 1.42681 0.861852 -3.0153 1.5418 0.935044 -2.83625 1.65274 1.00256 -2.6395 1.7597 1.0645 -2.42506 1.97503 1.20764 -2.18418 2.18122 1.34277 -1.90812 2.37867 1.46965 -1.59686 2.56773 1.58808 -1.25043 2.74869 1.69798 -0.868803 2.92182 1.79929 -0.451994 3.08734 1.89201 1.23047e-16 1.02482 0.404503 -3.51684 1.16277 0.487466 -3.40532 1.29686 0.564748 -3.27661 1.42724 0.636238 -3.13072 1.55402 0.701891 -2.96764 1.67729 0.761709 -2.78739 1.79712 0.815726 -2.58995 1.91357 0.864002 -2.37533 2.13674 0.981252 -2.13552 2.3516 1.09223 -1.86254 2.55861 1.19633 -1.55639 2.75817 1.29309 -1.21706 2.9506 1.38218 -0.844547 3.13618 1.46339 -0.438862 3.31514 1.53655 8.73181e-17 1.12551 0.298429 -3.46406 1.2682 0.364769 -3.34797 1.40765 0.426085 -3.21542 1.54403 0.482032 -3.06641 1.67747 0.532403 -2.90093 1.80808 0.577082 -2.71898 1.93593 0.616015 -2.52057 2.06108 0.649192 -2.30569 2.28622 0.737999 -2.0674 2.50429 0.823117 -1.79874 2.71578 0.903458 -1.49972 2.9211 0.97819 -1.17034 3.12057 1.04668 -0.810588 3.31449 1.10843 -0.420476 3.50307 1.16308 5.32627e-17 1.22915 0.1953 -3.39619 1.37505 0.240569 -3.27425 1.51837 0.282313 -3.13676 1.65936 0.319721 -2.98373 1.79815 0.352267 -2.81515 1.93487 0.379607 -2.63103 2.0696 0.401519 -2.43137 2.20239 0.417862 -2.21616 2.42204 0.476027 -1.97981 2.63632 0.534194 -1.71671 2.84569 0.590636 -1.42686 3.05053 0.644008 -1.11027 3.25112 0.693257 -0.766926 3.44773 0.737555 -0.396837 3.64054 0.776247 2.51038e-17 1.3399 0.0992723 -3.31325 1.48652 0.116853 -3.18414 1.63148 0.133973 -3.04061 1.77501 0.148842 -2.88267 1.91725 0.160304 -2.71031 2.05832 0.167585 -2.52354 2.19827 0.170154 -2.32234 2.33716 0.167642 -2.10674 2.5417 0.19354 -1.87276 2.74313 0.224618 -1.61645 2.94178 0.258279 -1.33781 3.13792 0.292499 -1.03685 3.33175 0.325684 -0.713562 3.52344 0.356564 -0.367945 3.71312 0.384119 6.49865e-18 1.4653 0.0178995 -3.21522 1.60804 -0.00277633 -3.07764 1.75079 -0.0177129 -2.92698 1.89354 -0.0308739 -2.76324 2.03628 -0.0447139 -2.58641 2.17903 -0.060834 -2.3965 2.32177 -0.0803236 -2.1935 2.46452 -0.103949 -1.97742 2.64128 -0.110976 -1.74624 2.81805 -0.105635 -1.49796 2.99481 -0.0917107 -1.23258 3.17157 -0.0721204 -0.950087 3.34833 -0.049152 -0.650495 3.52509 -0.0246239 -0.3338 3.70186 -4.65726e-16 0 0.0200598 1.22747 -2.85137 -0.00469482 1.3372 -2.72831 -0.0210163 1.44693 -2.59373 -0.0332204 1.55666 -2.44762 -0.04398 1.66639 -2.28999 -0.0550386 1.77612 -2.12083 -0.0675821 1.88585 -1.94016 -0.0824454 1.99558 -1.74795 -0.0892205 2.11534 -1.5426 -0.085972 2.23511 -1.32246 -0.0755615 2.35487 -1.08754 -0.0601972 2.47463 -0.837828 -0.0416097 2.5944 -0.573336 -0.0211748 2.71416 -0.29406 7.13066e-16 2.83393 0 0.0876034 1.12252 -2.93905 0.0964946 1.23773 -2.82354 0.107511 1.35132 -2.69529 0.118537 1.46358 -2.5543 0.128198 1.57467 -2.40056 0.13557 1.68472 -2.23408 0.140009 1.7938 -2.05487 0.141061 1.90198 -1.86291 0.157316 2.04297 -1.65489 0.178137 2.1817 -1.4275 0.201544 2.3184 -1.18074 0.225998 2.45328 -0.914615 0.250284 2.58648 -0.629115 0.273431 2.71814 -0.324243 0.29466 2.84836 4.26292e-17 0.16748 1.02991 -3.01325 0.200671 1.14608 -2.90412 0.232666 1.25981 -2.78123 0.26239 1.3714 -2.64456 0.289133 1.48104 -2.49412 0.312416 1.58886 -2.32991 0.33191 1.69497 -2.15193 0.347391 1.79944 -1.96017 0.386467 1.95223 -1.74991 0.426155 2.10109 -1.51639 0.465132 2.24638 -1.25961 0.502365 2.38838 -0.979589 0.537046 2.52731 -0.676312 0.568533 2.66337 -0.349782 0.596321 2.7967 8.00093e-17 0.253349 0.943296 -3.07395 0.304959 1.05791 -2.97005 0.35358 1.16953 -2.85154 0.398671 1.27841 -2.71841 0.439879 1.38471 -2.57067 0.476976 1.48858 -2.40832 0.509818 1.5901 -2.23134 0.538321 1.68935 -2.03976 0.599206 1.84673 -1.82765 0.65787 1.99896 -1.58911 0.713473 2.14641 -1.32414 0.76537 2.2894 -1.03275 0.813063 2.42816 -0.714927 0.856171 2.56292 -0.370678 0.894404 2.69385 1.09129e-16 0.341726 0.859186 -3.12116 0.407775 0.97063 -3.02133 0.469894 1.07863 -2.90623 0.527828 1.18339 -2.77586 0.581428 1.28504 -2.63021 0.630608 1.38371 -2.4693 0.675334 1.47949 -2.29311 0.715601 1.57245 -2.10165 0.796801 1.72887 -1.88811 0.873785 1.87925 -1.64567 0.946074 2.02395 -1.37433 1.01331 2.16326 -1.0741 1.07523 2.29743 -0.744962 1.13165 2.42667 -0.38693 1.18244 2.55115 1.28247e-16 0.430603 0.775576 -3.15489 0.508255 0.882644 -3.05796 0.581541 0.985875 -2.94529 0.65037 1.08542 -2.81689 0.714708 1.18142 -2.67274 0.774554 1.27395 -2.51285 0.829931 1.36311 -2.33723 0.880881 1.44898 -2.14586 0.980601 1.60007 -1.9313 1.07475 1.74455 -1.68607 1.16313 1.88272 -1.41018 1.24557 2.01483 -1.10363 1.322 2.14112 -0.766415 1.39237 2.26177 -0.398539 1.45668 2.37697 1.36748e-16 0.518825 0.691311 -3.17512 0.605977 0.792924 -3.07994 0.688644 0.890372 -2.96873 0.766835 0.983774 -2.8415 0.840582 1.07323 -2.69826 0.90993 1.15883 -2.53899 0.974936 1.24064 -2.3637 1.03566 1.31876 -2.17239 1.15189 1.46101 -1.95721 1.26171 1.59638 -1.71031 1.36509 1.72509 -1.43169 1.46207 1.84735 -1.12135 1.55266 1.96334 -0.779287 1.63692 2.07323 -0.405504 1.71493 2.17716 1.35002e-16 0.60579 0.60579 -3.18186 0.700824 0.700824 -3.08726 0.791463 0.791463 -2.97654 0.877779 0.877779 -2.84971 0.959844 0.959844 -2.70676 1.03773 1.03773 -2.5477 1.11151 1.11151 -2.37253 1.18126 1.18126 -2.18123 1.31176 1.31176 -1.96585 1.43543 1.43543 -1.71839 1.55239 1.55239 -1.43886 1.66277 1.66277 -1.12726 1.76669 1.76669 -0.783578 1.86428 1.86428 -0.407826 1.95565 1.95565 1.24227e-16 0.691311 0.518825 -3.17512 0.792924 0.605977 -3.07994 0.890372 0.688644 -2.96873 0.983774 0.766835 -2.8415 1.07323 0.840582 -2.69826 1.15883 0.90993 -2.53899 1.24064 0.974936 -2.3637 1.31876 1.03566 -2.17239 1.46101 1.15189 -1.95721 1.59638 1.26171 -1.71031 1.72509 1.36509 -1.43169 1.84735 1.46207 -1.12135 1.96334 1.55266 -0.779287 2.07323 1.63692 -0.405504 2.17716 1.71493 1.0634e-16 0.775576 0.430603 -3.15489 0.882644 0.508255 -3.05796 0.985875 0.581541 -2.94529 1.08542 0.65037 -2.81689 1.18142 0.714708 -2.67274 1.27395 0.774554 -2.51285 1.36311 0.829931 -2.33723 1.44898 0.880881 -2.14586 1.60007 0.980601 -1.9313 1.74455 1.07475 -1.68607 1.88272 1.16313 -1.41018 2.01483 1.24557 -1.10363 2.14112 1.322 -0.766415 2.26177 1.39237 -0.398539 2.37697 1.45668 8.38037e-17 0.859186 0.341726 -3.12116 0.97063 0.407775 -3.02133 1.07863 0.469894 -2.90623 1.18339 0.527828 -2.77586 1.28504 0.581428 -2.63021 1.38371 0.630608 -2.4693 1.47949 0.675334 -2.29311 1.57245 0.715601 -2.10165 1.72887 0.796801 -1.88811 1.87925 0.873785 -1.64567 2.02395 0.946074 -1.37433 2.16326 1.01331 -1.0741 2.29743 1.07523 -0.744962 2.42667 1.13165 -0.38693 2.55115 1.18244 5.94419e-17 0.943296 0.253349 -3.07395 1.05791 0.304959 -2.97005 1.16953 0.35358 -2.85154 1.27841 0.398671 -2.71841 1.38471 0.439879 -2.57067 1.48858 0.476976 -2.40832 1.5901 0.509818 -2.23134 1.68935 0.538321 -2.03976 1.84673 0.599206 -1.82765 1.99896 0.65787 -1.58911 2.14641 0.713473 -1.32414 2.2894 0.76537 -1.03275 2.42816 0.813063 -0.714927 2.56292 0.856171 -0.370678 2.69385 0.894404 3.62328e-17 1.02991 0.16748 -3.01325 1.14608 0.200671 -2.90412 1.25981 0.232666 -2.78123 1.3714 0.26239 -2.64456 1.48104 0.289133 -2.49412 1.58886 0.312416 -2.32991 1.69497 0.33191 -2.15193 1.79944 0.347391 -1.96017 1.95223 0.386467 -1.74991 2.10109 0.426155 -1.51639 2.24638 0.465132 -1.25961 2.38838 0.502365 -0.979589 2.52731 0.537046 -0.676312 2.66337 0.568533 -0.349782 2.7967 0.596321 1.70598e-17 1.12252 0.0876034 -2.93905 1.23773 0.0964946 -2.82354 1.35132 0.107511 -2.69529 1.46358 0.118537 -2.5543 1.57467 0.128198 -2.40056 1.68472 0.13557 -2.23408 1.7938 0.140009 -2.05487 1.90198 0.141061 -1.86291 2.04297 0.157316 -1.65489 2.1817 0.178137 -1.4275 2.3184 0.201544 -1.18074 2.45328 0.225998 -0.914615 2.58648 0.250284 -0.629115 2.71814 0.273431 -0.324243 2.84836 0.29466 4.40995e-18 1.22747 0.0200598 -2.85137 1.3372 -0.00469482 -2.72831 1.44693 -0.0210163 -2.59373 1.55666 -0.0332204 -2.44762 1.66639 -0.04398 -2.28999 1.77612 -0.0550386 -2.12083 1.88585 -0.0675821 -1.94016 1.99558 -0.0824454 -1.74795 2.11534 -0.0892205 -1.5426 2.23511 -0.085972 -1.32246 2.35487 -0.0755615 -1.08754 2.47463 -0.0601972 -0.837828 2.5944 -0.0416097 -0.573336 2.71416 -0.0211748 -0.29406 2.83393 1.78266e-16 0 0.0215875 1.01441 -2.48752 -0.0062297 1.09533 -2.37898 -0.023489 1.17625 -2.26047 -0.0347425 1.25718 -2.132 -0.042809 1.3381 -1.99357 -0.0495276 1.41902 -1.84517 -0.0561491 1.49994 -1.68681 -0.0635539 1.58087 -1.51849 -0.070028 1.65182 -1.33896 -0.0685527 1.72278 -1.14696 -0.0611891 1.79374 -0.942497 -0.0495271 1.8647 -0.725569 -0.0348133 1.93566 -0.496177 -0.0180384 2.00661 -0.254321 3.92065e-16 2.07757 0 0.076802 0.927793 -2.56486 0.0783696 1.01544 -2.46295 0.0841789 1.10155 -2.34997 0.0918728 1.18642 -2.22592 0.0999145 1.27023 -2.09081 0.107264 1.35312 -1.94463 0.113194 1.43518 -1.78739 0.117187 1.51648 -1.61908 0.125241 1.60297 -1.43702 0.137288 1.68791 -1.23856 0.151893 1.77147 -1.02368 0.167933 1.85381 -0.792379 0.184524 1.93502 -0.544667 0.200959 2.01521 -0.280541 0.216668 2.09444 2.72572e-17 0.142261 0.851421 -2.6303 0.165004 0.941422 -2.534 0.188495 1.02914 -2.4257 0.211459 1.1149 -2.3054 0.233041 1.19893 -2.17309 0.252655 1.28138 -2.02879 0.269889 1.36238 -1.87249 0.284453 1.442 -1.70418 0.307197 1.53737 -1.52 0.331051 1.63007 -1.31606 0.355043 1.72034 -1.09236 0.378413 1.8084 -0.84891 0.400564 1.89441 -0.585697 0.421022 1.9785 -0.302727 0.439408 2.06079 5.12661e-17 0.212716 0.780044 -2.68384 0.251438 0.869876 -2.59213 0.288897 0.956974 -2.48766 0.324396 1.04163 -2.37042 0.357468 1.12405 -2.24042 0.387794 1.20438 -2.09765 0.415157 1.28274 -1.94212 0.439411 1.35923 -1.77382 0.476358 1.45839 -1.58789 0.512329 1.55406 -1.37948 0.546701 1.64651 -1.14857 0.578992 1.73595 -0.895162 0.608827 1.82258 -0.619267 0.635918 1.90654 -0.32088 0.660039 1.98797 7.00291e-17 0.28528 0.710776 -2.72548 0.336444 0.798789 -2.63735 0.385176 0.883745 -2.53585 0.431115 0.965884 -2.42099 0.474021 1.04538 -2.29278 0.513739 1.12237 -2.15121 0.550175 1.19696 -1.99627 0.583276 1.26922 -1.82798 0.633535 1.36827 -1.6407 0.681335 1.46325 -1.4288 0.726314 1.5544 -1.19228 0.768199 1.64195 -0.931137 0.806785 1.72608 -0.645377 0.841924 1.80692 -0.334998 0.873511 1.88462 8.23833e-17 0.358293 0.641956 -2.75523 0.419353 0.726905 -2.66964 0.477331 0.808557 -2.57027 0.532064 0.887096 -2.45712 0.583455 0.962662 -2.33018 0.631453 1.03537 -2.18946 0.676039 1.10531 -2.03496 0.717216 1.17256 -1.86667 0.779645 1.26843 -1.67842 0.838595 1.35987 -1.46403 0.893897 1.44709 -1.2235 0.945434 1.53028 -0.956833 0.993129 1.6096 -0.664027 1.03694 1.68518 -0.345083 1.07684 1.75716 8.79047e-17 0.430796 0.572628 -2.77308 0.499845 0.653422 -2.68902 0.565488 0.730761 -2.59093 0.627693 0.804769 -2.47879 0.686457 0.87555 -2.35262 0.741792 0.943193 -2.21241 0.793726 1.00778 -2.05816 0.842299 1.06937 -1.88988 0.915573 1.15962 -1.70105 0.984714 1.24529 -1.48516 1.0497 1.32656 -1.24223 1.11052 1.40354 -0.97225 1.1672 1.47638 -0.675217 1.21976 1.5452 -0.351134 1.26825 1.61009 8.68164e-17 0.502293 0.502293 -2.77903 0.577833 0.577833 -2.69548 0.649865 0.649865 -2.59781 0.718448 0.718448 -2.48602 0.78364 0.78364 -2.3601 0.845498 0.845498 -2.22006 0.904079 0.904079 -2.0659 0.959441 0.959441 -1.89761 1.04206 1.04206 -1.70859 1.1202 1.1202 -1.49221 1.19393 1.19393 -1.24848 1.26334 1.26334 -0.977389 1.32851 1.32851 -0.678947 1.38952 1.38952 -0.353151 1.44646 1.44646 7.9897e-17 0.572628 0.430796 -2.77308 0.653422 0.499845 -2.68902 0.730761 0.565488 -2.59093 0.804769 0.627693 -2.47879 0.87555 0.686457 -2.35262 0.943193 0.741792 -2.21241 1.00778 0.793726 -2.05816 1.06937 0.842299 -1.88988 1.15962 0.915573 -1.70105 1.24529 0.984714 -1.48516 1.32656 1.0497 -1.24223 1.40354 1.11052 -0.97225 1.47638 1.1672 -0.675217 1.5452 1.21976 -0.351134 1.61009 1.26825 6.83844e-17 0.641956 0.358293 -2.75523 0.726905 0.419353 -2.66964 0.808557 0.477331 -2.57027 0.887096 0.532064 -2.45712 0.962662 0.583455 -2.33018 1.03537 0.631453 -2.18946 1.10531 0.676039 -2.03496 1.17256 0.717216 -1.86667 1.26843 0.779645 -1.67842 1.35987 0.838595 -1.46403 1.44709 0.893897 -1.2235 1.53028 0.945434 -0.956833 1.6096 0.993129 -0.664027 1.68518 1.03694 -0.345083 1.75716 1.07684 5.38707e-17 0.710776 0.28528 -2.72548 0.798789 0.336444 -2.63735 0.883745 0.385176 -2.53585 0.965884 0.431115 -2.42099 1.04538 0.474021 -2.29278 1.12237 0.513739 -2.15121 1.19696 0.550175 -1.99627 1.26922 0.583276 -1.82798 1.36827 0.633535 -1.6407 1.46325 0.681335 -1.4288 1.5544 0.726314 -1.19228 1.64195 0.768199 -0.931137 1.72608 0.806785 -0.645377 1.80692 0.841924 -0.334998 1.88462 0.873511 3.81841e-17 0.780044 0.212716 -2.68384 0.869876 0.251438 -2.59213 0.956974 0.288897 -2.48766 1.04163 0.324396 -2.37042 1.12405 0.357468 -2.24042 1.20438 0.387794 -2.09765 1.28274 0.415157 -1.94212 1.35923 0.439411 -1.77382 1.45839 0.476358 -1.58789 1.55406 0.512329 -1.37948 1.64651 0.546701 -1.14857 1.73595 0.578992 -0.895162 1.82258 0.608827 -0.619267 1.90654 0.635918 -0.32088 1.98797 0.660039 2.32509e-17 0.851421 0.142261 -2.6303 0.941422 0.165004 -2.534 1.02914 0.188495 -2.4257 1.1149 0.211459 -2.3054 1.19893 0.233041 -2.17309 1.28138 0.252655 -2.02879 1.36238 0.269889 -1.87249 1.442 0.284453 -1.70418 1.53737 0.307197 -1.52 1.63007 0.331051 -1.31606 1.72034 0.355043 -1.09236 1.8084 0.378413 -0.84891 1.89441 0.400564 -0.585697 1.9785 0.421022 -0.302727 2.06079 0.439408 1.09311e-17 0.927793 0.076802 -2.56486 1.01544 0.0783696 -2.46295 1.10155 0.0841789 -2.34997 1.18642 0.0918728 -2.22592 1.27023 0.0999145 -2.09081 1.35312 0.107264 -1.94463 1.43518 0.113194 -1.78739 1.51648 0.117187 -1.61908 1.60297 0.125241 -1.43702 1.68791 0.137288 -1.23856 1.77147 0.151893 -1.02368 1.85381 0.167933 -0.792379 1.93502 0.184524 -0.544667 2.01521 0.200959 -0.280541 2.09444 0.216668 2.81973e-18 1.01441 0.0215875 -2.48752 1.09533 -0.0062297 -2.37898 1.17625 -0.023489 -2.26047 1.25718 -0.0347425 -2.132 1.3381 -0.042809 -1.99357 1.41902 -0.0495276 -1.84517 1.49994 -0.0561491 -1.68681 1.58087 -0.0635539 -1.51849 1.65182 -0.070028 -1.33896 1.72278 -0.0685527 -1.14696 1.79374 -0.0611891 -0.942497 1.8647 -0.0495271 -0.725569 1.93566 -0.0348133 -0.496177 2.00661 -0.0180384 -0.254321 2.07757 -1.30688e-16 0 0.0224824 0.826129 -2.12367 -0.00738097 0.882452 -2.02964 -0.0251312 0.938775 -1.92721 -0.0354402 0.995098 -1.81638 -0.041201 1.05142 -1.69714 -0.0443012 1.10774 -1.56951 -0.0460245 1.16407 -1.43347 -0.0472746 1.22039 -1.28903 -0.0533978 1.25073 -1.13532 -0.0533773 1.28108 -0.971459 -0.0485932 1.31142 -0.797457 -0.0401101 1.34176 -0.61331 -0.0287628 1.3721 -0.419018 -0.0152148 1.40245 -0.214582 0 1.43279 0 0.0668679 0.755708 -2.19067 0.0624779 0.81967 -2.10235 0.0639774 0.882169 -2.00465 0.0688503 0.943518 -1.89755 0.0754523 1.00392 -1.78106 0.0826665 1.06352 -1.65518 0.0897101 1.12241 -1.51991 0.0960207 1.18066 -1.37524 0.0973135 1.22168 -1.21916 0.102073 1.26175 -1.04961 0.109324 1.301 -0.866605 0.118303 1.33951 -0.670142 0.128406 1.37737 -0.46022 0.139149 1.41463 -0.236839 0.150141 1.45135 1.60548e-17 0.119644 0.693678 -2.24735 0.133567 0.761079 -2.16387 0.149802 0.826349 -2.07017 0.166929 0.889846 -1.96623 0.183991 0.951816 -1.85207 0.200324 1.01243 -1.72767 0.215456 1.07182 -1.59305 0.229047 1.13008 -1.4482 0.238218 1.17748 -1.2901 0.248882 1.22325 -1.11574 0.260369 1.26758 -0.925116 0.272152 1.31059 -0.71823 0.283814 1.35241 -0.495083 0.295021 1.39312 -0.255673 0.305507 1.43281 3.02972e-17 0.176529 0.635755 -2.29373 0.204205 0.704112 -2.21421 0.232035 0.769982 -2.12378 0.259209 0.833692 -2.02243 0.285171 0.895471 -1.91016 0.309536 0.955487 -1.78698 0.332031 1.01387 -1.65289 0.352463 1.07071 -1.50788 0.369455 1.1212 -1.34814 0.386493 1.16958 -1.16984 0.403141 1.21605 -0.972987 0.419056 1.26076 -0.757575 0.433968 1.30382 -0.523607 0.447667 1.34535 -0.271082 0.459986 1.38543 4.14832e-17 0.235166 0.579586 -2.32981 0.27347 0.647242 -2.25336 0.310597 0.712204 -2.16547 0.346099 0.774739 -2.06613 0.37967 0.835044 -1.95535 0.411102 0.893266 -1.83311 0.440252 0.94952 -1.69943 0.467028 1.0039 -1.55431 0.491453 1.05495 -1.39329 0.514881 1.10358 -1.21192 0.537049 1.14997 -1.01022 0.557756 1.19425 -0.788177 0.576848 1.23654 -0.545792 0.594209 1.27695 -0.283067 0.609754 1.31556 4.88814e-17 0.2942 0.523814 -2.35557 0.340866 0.589517 -2.28133 0.385537 0.652412 -2.19525 0.427993 0.712702 -2.09735 0.468092 0.770542 -1.98762 0.505742 0.82605 -1.86607 0.540888 0.879325 -1.73268 0.573503 0.930445 -1.58747 0.604767 0.980114 -1.42553 0.634297 1.02718 -1.24198 0.661963 1.0718 -1.03682 0.687672 1.11408 -0.810036 0.711357 1.15413 -0.561639 0.732975 1.19205 -0.291627 0.752499 1.22791 5.22138e-17 0.352852 0.467658 -2.37103 0.406155 0.530326 -2.29811 0.456981 0.590164 -2.21312 0.505264 0.647305 -2.11608 0.55097 0.701852 -2.00699 0.594088 0.753894 -1.88584 0.634622 0.803504 -1.75263 0.672587 0.850747 -1.60736 0.709944 0.89749 -1.44488 0.745074 0.941596 -1.26002 0.777949 0.98317 -1.05277 0.808556 1.0223 -0.823151 0.836893 1.05907 -0.571147 0.862969 1.09356 -0.296764 0.886801 1.12583 5.15992e-17 0.410713 0.410713 -2.37619 0.46928 0.46928 -2.3037 0.525114 0.525114 -2.21908 0.57826 0.57826 -2.12233 0.628762 0.628762 -2.01344 0.676667 0.676667 -1.89243 0.722019 0.722019 -1.75928 0.764863 0.764863 -1.614 0.807431 0.807431 -1.45133 0.847482 0.847482 -1.26603 0.885062 0.885062 -1.05809 0.920219 0.920219 -0.827522 0.952998 0.952998 -0.574317 0.983447 0.983447 -0.298476 1.01161 1.01161 4.74961e-17 0.467658 0.352852 -2.37103 0.530326 0.406155 -2.29811 0.590164 0.456981 -2.21312 0.647305 0.505264 -2.11608 0.701852 0.55097 -2.00699 0.753894 0.594088 -1.88584 0.803504 0.634622 -1.75263 0.850747 0.672587 -1.60736 0.89749 0.709944 -1.44488 0.941596 0.745074 -1.26002 0.98317 0.777949 -1.05277 1.0223 0.808556 -0.823151 1.05907 0.836893 -0.571147 1.09356 0.862969 -0.296764 1.12583 0.886801 4.06441e-17 0.523814 0.2942 -2.35557 0.589517 0.340866 -2.28133 0.652412 0.385537 -2.19525 0.712702 0.427993 -2.09735 0.770542 0.468092 -1.98762 0.82605 0.505742 -1.86607 0.879325 0.540888 -1.73268 0.930445 0.573503 -1.58747 0.980114 0.604767 -1.42553 1.02718 0.634297 -1.24198 1.0718 0.661963 -1.03682 1.11408 0.687672 -0.810036 1.15413 0.711357 -0.561639 1.19205 0.732975 -0.291627 1.22791 0.752499 3.19983e-17 0.579586 0.235166 -2.32981 0.647242 0.27347 -2.25336 0.712204 0.310597 -2.16547 0.774739 0.346099 -2.06613 0.835044 0.37967 -1.95535 0.893266 0.411102 -1.83311 0.94952 0.440252 -1.69943 1.0039 0.467028 -1.55431 1.05495 0.491453 -1.39329 1.10358 0.514881 -1.21192 1.14997 0.537049 -1.01022 1.19425 0.557756 -0.788177 1.23654 0.576848 -0.545792 1.27695 0.594209 -0.283067 1.31556 0.609754 2.26562e-17 0.635755 0.176529 -2.29373 0.704112 0.204205 -2.21421 0.769982 0.232035 -2.12378 0.833692 0.259209 -2.02243 0.895471 0.285171 -1.91016 0.955487 0.309536 -1.78698 1.01387 0.332031 -1.65289 1.07071 0.352463 -1.50788 1.1212 0.369455 -1.34814 1.16958 0.386493 -1.16984 1.21605 0.403141 -0.972987 1.26076 0.419056 -0.757575 1.30382 0.433968 -0.523607 1.34535 0.447667 -0.271082 1.38543 0.459986 1.37732e-17 0.693678 0.119644 -2.24735 0.761079 0.133567 -2.16387 0.826349 0.149802 -2.07017 0.889846 0.166929 -1.96623 0.951816 0.183991 -1.85207 1.01243 0.200324 -1.72767 1.07182 0.215456 -1.59305 1.13008 0.229047 -1.4482 1.17748 0.238218 -1.2901 1.22325 0.248882 -1.11574 1.26758 0.260369 -0.925116 1.31059 0.272152 -0.71823 1.35241 0.283814 -0.495083 1.39312 0.295021 -0.255673 1.43281 0.305507 6.46007e-18 0.755708 0.0668679 -2.19067 0.81967 0.0624779 -2.10235 0.882169 0.0639774 -2.00465 0.943518 0.0688503 -1.89755 1.00392 0.0754523 -1.78106 1.06352 0.0826665 -1.65518 1.12241 0.0897101 -1.51991 1.18066 0.0960207 -1.37524 1.22168 0.0973135 -1.21916 1.26175 0.102073 -1.04961 1.301 0.109324 -0.866605 1.33951 0.118303 -0.670142 1.37737 0.128406 -0.46022 1.41463 0.139149 -0.236839 1.45135 0.150141 1.66086e-18 0.826129 0.0224824 -2.12367 0.882452 -0.00738097 -2.02964 0.938775 -0.0251312 -1.92721 0.995098 -0.0354402 -1.81638 1.05142 -0.041201 -1.69714 1.10774 -0.0443012 -1.56951 1.16407 -0.0460245 -1.43347 1.22039 -0.0472746 -1.28903 1.25073 -0.0533978 -1.13532 1.28108 -0.0533773 -0.971459 1.31142 -0.0485932 -0.797457 1.34176 -0.0401101 -0.61331 1.3721 -0.0287628 -0.419018 1.40245 -0.0152148 -0.214582 1.43279 -2.70386e-16 0 0.0227446 0.662621 -1.75983 -0.00814864 0.698554 -1.68031 -0.0259428 0.734487 -1.59395 -0.0353135 0.77042 -1.50076 -0.039156 0.806353 -1.40072 -0.0393594 0.842285 -1.29384 -0.0372084 0.878218 -1.18013 -0.0336074 0.914151 -