<?xml version="1.0"?> 
<VTKFile type="StructuredGrid" version="0.1"> 
<StructuredGrid WholeExtent="0 14 0 14 0 29"> 
<Piece Extent="0 14 0 14 0 29"> 
<PointData>
<DataArray type="Float32" Name="efield" format="ascii" NumberOfComponents="3"> 
2.32703e-11 19.3426 43.7083 -1.65182 18.2312 45.7153 -3.26207 17.0782 47.4135 -4.83075 15.8836 48.8029 -6.35786 14.6475 49.8836 -7.8434 13.3698 50.6555 -9.28737 12.0506 51.1186 -10.6898 10.6898 51.273 -12.0506 9.28737 51.1186 -13.3698 7.8434 50.6555 -14.6475 6.35786 49.8836 -15.8836 4.83075 48.8029 -17.0782 3.26207 47.4135 -18.2312 1.65182 45.7153 -19.3426 -1.74083e-13 43.7083 1.65182 18.2312 45.7153 2.32478e-11 17.0426 47.7783 -1.61619 15.8183 49.5239 -3.19675 14.5585 50.9522 -4.74167 13.263 52.063 -6.25097 11.9318 52.8565 -7.72463 10.5651 53.3326 -9.16266 9.16266 53.4913 -10.5651 7.72463 53.3326 -11.9318 6.25097 52.8565 -13.263 4.74167 52.063 -14.5585 3.19675 50.9522 -15.8183 1.61619 49.5239 -17.0426 1.23926e-12 47.7783 -18.2312 -1.65182 45.7153 3.26207 17.0782 47.4135 1.61619 15.8183 49.5239 2.27536e-11 14.5288 51.3097 -1.5865 13.2095 52.7708 -3.1433 11.8606 53.9072 -4.67041 10.4819 54.7189 -6.16782 9.07358 55.206 -7.63555 7.63555 55.3683 -9.07358 6.16782 55.206 -10.4819 4.67041 54.7189 -11.8606 3.1433 53.9072 -13.2095 1.5865 52.7708 -14.5288 2.45051e-12 51.3097 -15.8183 -1.61619 49.5239 -17.0782 -3.26207 47.4135 4.83075 15.8836 48.8029 3.19675 14.5585 50.9522 1.5865 13.2095 52.7708 2.17919e-11 11.8368 54.2588 -1.56274 10.4403 55.4161 -3.10173 9.02013 56.2427 -4.61696 7.57616 56.7387 -6.10844 6.10844 56.9041 -7.57616 4.61696 56.7387 -9.02013 3.10173 56.2427 -10.4403 1.56274 55.4161 -11.8368 3.4345e-12 54.2588 -13.2095 -1.5865 52.7708 -14.5585 -3.19675 50.9522 -15.8836 -4.83075 48.8029 6.35786 14.6475 49.8836 4.74167 13.263 52.063 3.1433 11.8606 53.9072 1.56274 10.4403 55.4161 2.03613e-11 9.00231 56.5897 -1.54493 7.54647 57.4279 -3.07203 6.07281 57.9309 -4.58133 4.58133 58.0985 -6.07281 3.07203 57.9309 -7.54647 1.54493 57.4279 -9.00231 4.17752e-12 56.5897 -10.4403 -1.56274 55.4161 -11.8606 -3.1433 53.9072 -13.263 -4.74167 52.063 -14.6475 -6.35786 49.8836 7.8434 13.3698 50.6555 6.25097 11.9318 52.8565 4.67041 10.4819 54.7189 3.10173 9.02013 56.2427 1.54493 7.54647 57.4279 1.8459e-11 6.06093 58.2745 -1.53305 4.56351 58.7824 -3.05422 3.05422 58.9517 -4.56351 1.53305 58.7824 -6.06093 4.66477e-12 58.2745 -7.54647 -1.54493 57.4279 -9.02013 -3.10173 56.2427 -10.4819 -4.67041 54.7189 -11.9318 -6.25097 52.8565 -13.3698 -7.8434 50.6555 9.28737 12.0506 51.1186 7.72463 10.5651 53.3326 6.16782 9.07358 55.206 4.61696 7.57616 56.7387 3.07203 6.07281 57.9309 1.53305 4.56351 58.7824 1.60869e-11 3.04828 59.2933 -1.52711 1.52711 59.4636 -3.04828 4.88554e-12 59.2933 -4.56351 -1.53305 58.7824 -6.07281 -3.07203 57.9309 -7.57616 -4.61696 56.7387 -9.07358 -6.16782 55.206 -10.5651 -7.72463 53.3326 -12.0506 -9.28737 51.1186 10.6898 10.6898 51.273 9.16266 9.16266 53.4913 7.63555 7.63555 55.3683 6.10844 6.10844 56.9041 4.58133 4.58133 58.0985 3.05422 3.05422 58.9517 1.52711 1.52711 59.4636 1.3244e-11 4.81379e-12 59.6343 -1.52711 -1.52711 59.4636 -3.05422 -3.05422 58.9517 -4.58133 -4.58133 58.0985 -6.10844 -6.10844 56.9041 -7.63555 -7.63555 55.3683 -9.16266 -9.16266 53.4913 -10.6898 -10.6898 51.273 12.0506 9.28737 51.1186 10.5651 7.72463 53.3326 9.07358 6.16782 55.206 7.57616 4.61696 56.7387 6.07281 3.07203 57.9309 4.56351 1.53305 58.7824 3.04828 8.41149e-12 59.2933 1.52711 -1.52711 59.4636 1.30533e-11 -3.04828 59.2933 -1.53305 -4.56351 58.7824 -3.07203 -6.07281 57.9309 -4.61696 -7.57616 56.7387 -6.16782 -9.07358 55.206 -7.72463 -10.5651 53.3326 -9.28737 -12.0506 51.1186 13.3698 7.8434 50.6555 11.9318 6.25097 52.8565 10.4819 4.67041 54.7189 9.02013 3.10173 56.2427 7.54647 1.54493 57.4279 6.06093 1.20318e-11 58.2745 4.56351 -1.53305 58.7824 3.05422 -3.05422 58.9517 1.53305 -4.56351 58.7824 1.28934e-11 -6.06093 58.2745 -1.54493 -7.54647 57.4279 -3.10173 -9.02013 56.2427 -4.67041 -10.4819 54.7189 -6.25097 -11.9318 52.8565 -7.8434 -13.3698 50.6555 14.6475 6.35786 49.8836 13.263 4.74167 52.063 11.8606 3.1433 53.9072 10.4403 1.56274 55.4161 9.00231 1.55453e-11 56.5897 7.54647 -1.54493 57.4279 6.07281 -3.07203 57.9309 4.58133 -4.58133 58.0985 3.07203 -6.07281 57.9309 1.54493 -7.54647 57.4279 1.28003e-11 -9.00231 56.5897 -1.56274 -10.4403 55.4161 -3.1433 -11.8606 53.9072 -4.74167 -13.263 52.063 -6.35786 -14.6475 49.8836 15.8836 4.83075 48.8029 14.5585 3.19675 50.9522 13.2095 1.5865 52.7708 11.8368 1.8814e-11 54.2588 10.4403 -1.56274 55.4161 9.02013 -3.10173 56.2427 7.57616 -4.61696 56.7387 6.10844 -6.10844 56.9041 4.61696 -7.57616 56.7387 3.10173 -9.02013 56.2427 1.56274 -10.4403 55.4161 1.28113e-11 -11.8368 54.2588 -1.5865 -13.2095 52.7708 -3.19675 -14.5585 50.9522 -4.83075 -15.8836 48.8029 17.0782 3.26207 47.4135 15.8183 1.61619 49.5239 14.5288 2.16983e-11 51.3097 13.2095 -1.5865 52.7708 11.8606 -3.1433 53.9072 10.4819 -4.67041 54.7189 9.07358 -6.16782 55.206 7.63555 -7.63555 55.3683 6.16782 -9.07358 55.206 4.67041 -10.4819 54.7189 3.1433 -11.8606 53.9072 1.5865 -13.2095 52.7708 1.2963e-11 -14.5288 51.3097 -1.61619 -15.8183 49.5239 -3.26207 -17.0782 47.4135 18.2312 1.65182 45.7153 17.0426 2.40577e-11 47.7783 15.8183 -1.61619 49.5239 14.5585 -3.19675 50.9522 13.263 -4.74167 52.063 11.9318 -6.25097 52.8565 10.5651 -7.72463 53.3326 9.16266 -9.16266 53.4913 7.72463 -10.5651 53.3326 6.25097 -11.9318 52.8565 4.74167 -13.263 52.063 3.19675 -14.5585 50.9522 1.61619 -15.8183 49.5239 1.32889e-11 -17.0426 47.7783 -1.65182 -18.2312 45.7153 19.3426 2.57661e-11 43.7083 18.2312 -1.65182 45.7153 17.0782 -3.26207 47.4135 15.8836 -4.83075 48.8029 14.6475 -6.35786 49.8836 13.3698 -7.8434 50.6555 12.0506 -9.28737 51.1186 10.6898 -10.6898 51.273 9.28737 -12.0506 51.1186 7.8434 -13.3698 50.6555 6.35786 -14.6475 49.8836 4.83075 -15.8836 48.8029 3.26207 -17.0782 47.4135 1.65182 -18.2312 45.7153 1.38272e-11 -19.3426 43.7083 1.32596e-11 18.1996 50.898 -1.55421 17.1538 53.2351 -3.06931 16.069 55.2126 -4.54529 14.945 56.8306 -5.98216 13.782 58.089 -7.37991 12.5798 58.9879 -8.73855 11.3385 59.5272 -10.0581 10.0581 59.707 -11.3385 8.73855 59.5272 -12.5798 7.37991 58.9879 -13.782 5.98216 58.089 -14.945 4.54529 56.8306 -16.069 3.06931 55.2126 -17.1538 1.55421 53.2351 -18.1996 1.36779e-13 50.898 1.55421 17.1538 53.2351 1.3978e-11 16.0355 55.6375 -1.52068 14.8836 57.6703 -3.00784 13.6982 59.3334 -4.46147 12.4792 60.627 -5.88158 11.2267 61.551 -7.26816 9.94073 62.1054 -8.62121 8.62121 62.2902 -9.94073 7.26816 62.1054 -11.2267 5.88158 61.551 -12.4792 4.46147 60.627 -13.6982 3.00784 59.3334 -14.8836 1.52068 57.6703 -16.0355 1.16756e-12 55.6375 -17.1538 -1.55421 53.2351 3.06931 16.069 55.2126 1.52068 14.8836 57.6703 1.43484e-11 13.6702 59.7498 -1.49275 12.4289 61.4512 -2.95755 11.1597 62.7746 -4.39442 9.86251 63.7198 -5.80335 8.53739 64.287 -7.18434 7.18434 64.476 -8.53739 5.80335 64.287 -9.86251 4.39442 63.7198 -11.1597 2.95755 62.7746 -12.4289 1.49275 61.4512 -13.6702 2.17337e-12 59.7498 -14.8836 -1.52068 57.6703 -16.069 -3.06931 55.2126 4.54529 14.945 56.8306 3.00784 13.6982 59.3334 1.49275 12.4289 61.4512 1.4405e-11 11.1373 63.184 -1.47039 9.82339 64.5316 -2.91844 8.4871 65.4943 -4.34413 7.12846 66.0718 -5.74747 5.74747 66.2644 -7.12846 4.34413 66.0718 -8.4871 2.91844 65.4943 -9.82339 1.47039 64.5316 -11.1373 3.13587e-12 63.184 -12.4289 -1.49275 61.4512 -13.6982 -3.00784 59.3334 -14.945 -4.54529 56.8306 5.98216 13.782 58.089 4.46147 12.4792 60.627 2.95755 11.1597 62.7746 1.47039 9.82339 64.5316 1.4176e-11 8.47034 65.8983 -1.45363 7.10052 66.8744 -2.8905 5.71395 67.4601 -4.3106 4.3106 67.6553 -5.71395 2.8905 67.4601 -7.10052 1.45363 66.8744 -8.47034 4.04344e-12 65.8983 -9.82339 -1.47039 64.5316 -11.1597 -2.95755 62.7746 -12.4792 -4.46147 60.627 -13.782 -5.98216 58.089 7.37991 12.5798 58.9879 5.88158 11.2267 61.551 4.39442 9.86251 63.7198 2.91844 8.4871 65.4943 1.45363 7.10052 66.8744 1.36894e-11 5.70277 67.8602 -1.44246 4.29384 68.4517 -2.87374 2.87374 68.6489 -4.29384 1.44246 68.4517 -5.70277 4.89194e-12 67.8602 -7.10052 -1.45363 66.8744 -8.4871 -2.91844 65.4943 -9.86251 -4.39442 63.7198 -11.2267 -5.88158 61.551 -12.5798 -7.37991 58.9879 8.73855 11.3385 59.5272 7.26816 9.94073 62.1054 5.80335 8.53739 64.287 4.34413 7.12846 66.0718 2.8905 5.71395 67.4601 1.44246 4.29384 68.4517 1.29738e-11 2.86815 69.0467 -1.43687 1.43687 69.245 -2.86815 5.67012e-12 69.0467 -4.29384 -1.44246 68.4517 -5.71395 -2.8905 67.4601 -7.12846 -4.34413 66.0718 -8.53739 -5.80335 64.287 -9.94073 -7.26816 62.1054 -11.3385 -8.73855 59.5272 10.0581 10.0581 59.707 8.62121 8.62121 62.2902 7.18434 7.18434 64.476 5.74747 5.74747 66.2644 4.3106 4.3106 67.6553 2.87374 2.87374 68.6489 1.43687 1.43687 69.245 1.20582e-11 6.36173e-12 69.4437 -1.43687 -1.43687 69.245 -2.87374 -2.87374 68.6489 -4.3106 -4.3106 67.6553 -5.74747 -5.74747 66.2644 -7.18434 -7.18434 64.476 -8.62121 -8.62121 62.2902 -10.0581 -10.0581 59.707 11.3385 8.73855 59.5272 9.94073 7.26816 62.1054 8.53739 5.80335 64.287 7.12846 4.34413 66.0718 5.71395 2.8905 67.4601 4.29384 1.44246 68.4517 2.86815 7.07251e-12 69.0467 1.43687 -1.43687 69.245 1.15581e-11 -2.86815 69.0467 -1.44246 -4.29384 68.4517 -2.8905 -5.71395 67.4601 -4.34413 -7.12846 66.0718 -5.80335 -8.53739 64.287 -7.26816 -9.94073 62.1054 -8.73855 -11.3385 59.5272 12.5798 7.37991 58.9879 11.2267 5.88158 61.551 9.86251 4.39442 63.7198 8.4871 2.91844 65.4943 7.10052 1.45363 66.8744 5.70277 7.75452e-12 67.8602 4.29384 -1.44246 68.4517 2.87374 -2.87374 68.6489 1.44246 -4.29384 68.4517 1.10282e-11 -5.70277 67.8602 -1.45363 -7.10052 66.8744 -2.91844 -8.4871 65.4943 -4.39442 -9.86251 63.7198 -5.88158 -11.2267 61.551 -7.37991 -12.5798 58.9879 13.782 5.98216 58.089 12.4792 4.46147 60.627 11.1597 2.95755 62.7746 9.82339 1.47039 64.5316 8.47034 8.35637e-12 65.8983 7.10052 -1.45363 66.8744 5.71395 -2.8905 67.4601 4.3106 -4.3106 67.6553 2.8905 -5.71395 67.4601 1.45363 -7.10052 66.8744 1.04794e-11 -8.47034 65.8983 -1.47039 -9.82339 64.5316 -2.95755 -11.1597 62.7746 -4.46147 -12.4792 60.627 -5.98216 -13.782 58.089 14.945 4.54529 56.8306 13.6982 3.00784 59.3334 12.4289 1.49275 61.4512 11.1373 8.81112e-12 63.184 9.82339 -1.47039 64.5316 8.4871 -2.91844 65.4943 7.12846 -4.34413 66.0718 5.74747 -5.74747 66.2644 4.34413 -7.12846 66.0718 2.91844 -8.4871 65.4943 1.47039 -9.82339 64.5316 9.92573e-12 -11.1373 63.184 -1.49275 -12.4289 61.4512 -3.00784 -13.6982 59.3334 -4.54529 -14.945 56.8306 16.069 3.06931 55.2126 14.8836 1.52068 57.6703 13.6702 9.06153e-12 59.7498 12.4289 -1.49275 61.4512 11.1597 -2.95755 62.7746 9.86251 -4.39442 63.7198 8.53739 -5.80335 64.287 7.18434 -7.18434 64.476 5.80335 -8.53739 64.287 4.39442 -9.86251 63.7198 2.95755 -11.1597 62.7746 1.49275 -12.4289 61.4512 9.37628e-12 -13.6702 59.7498 -1.52068 -14.8836 57.6703 -3.06931 -16.069 55.2126 17.1538 1.55421 53.2351 16.0355 9.0388e-12 55.6375 14.8836 -1.52068 57.6703 13.6982 -3.00784 59.3334 12.4792 -4.46147 60.627 11.2267 -5.88158 61.551 9.94073 -7.26816 62.1054 8.62121 -8.62121 62.2902 7.26816 -9.94073 62.1054 5.88158 -11.2267 61.551 4.46147 -12.4792 60.627 3.00784 -13.6982 59.3334 1.52068 -14.8836 57.6703 8.84093e-12 -16.0355 55.6375 -1.55421 -17.1538 53.2351 18.1996 8.6926e-12 50.898 17.1538 -1.55421 53.2351 16.069 -3.06931 55.2126 14.945 -4.54529 56.8306 13.782 -5.98216 58.089 12.5798 -7.37991 58.9879 11.3385 -8.73855 59.5272 10.0581 -10.0581 59.707 8.73855 -11.3385 59.5272 7.37991 -12.5798 58.9879 5.98216 -13.782 58.089 4.54529 -14.945 56.8306 3.06931 -16.069 55.2126 1.55421 -17.1538 53.2351 8.332e-12 -18.1996 50.898 9.60299e-12 16.8884 57.6172 -1.44224 15.9181 60.2628 -2.84819 14.9114 62.5014 -4.21784 13.8684 64.333 -5.5512 12.7891 65.7575 -6.84826 11.6735 66.7751 -8.10902 10.5217 67.3856 -9.33348 9.33348 67.5891 -10.5217 8.10902 67.3856 -11.6735 6.84826 66.7751 -12.7891 5.5512 65.7575 -13.8684 4.21784 64.333 -14.9114 2.84819 62.5014 -15.9181 1.44224 60.2628 -16.8884 1.58273e-12 57.6172 1.44224 15.9181 60.2628 9.72827e-12 14.8803 62.9823 -1.41113 13.8113 65.2835 -2.79115 12.7113 67.1662 -4.14007 11.5802 68.6306 -5.45786 10.418 69.6765 -6.74455 9.2246 70.3041 -8.00013 8.00013 70.5133 -9.2246 6.74455 70.3041 -10.418 5.45786 69.6765 -11.5802 4.14007 68.6306 -12.7113 2.79115 67.1662 -13.8113 1.41113 65.2835 -14.8803 1.71393e-12 62.9823 -15.9181 -1.44224 60.2628 2.84819 14.9114 62.5014 1.41113 13.8113 65.2835 9.72392e-12 12.6854 67.6375 -1.38521 11.5335 69.5636 -2.74449 10.3557 71.0616 -4.07784 9.152 72.1316 -5.38527 7.92235 72.7736 -6.66677 6.66677 72.9877 -7.92235 5.38527 72.7736 -9.152 4.07784 72.1316 -10.3557 2.74449 71.0616 -11.5335 1.38521 69.5636 -12.6854 1.99001e-12 67.6375 -13.8113 -1.41113 65.2835 -14.9114 -2.84819 62.5014 4.21784 13.8684 64.333 2.79115 12.7113 67.1662 1.38521 11.5335 69.5636 9.60898e-12 10.335 71.525 -1.36447 9.11571 73.0506 -2.70819 7.87568 74.1403 -4.03118 6.61492 74.7942 -5.33342 5.33342 75.0121 -6.61492 4.03118 74.7942 -7.87568 2.70819 74.1403 -9.11571 1.36447 73.0506 -10.335 2.39585e-12 71.525 -11.5335 -1.38521 69.5636 -12.7113 -2.79115 67.1662 -13.8684 -4.21784 64.333 5.5512 12.7891 65.7575 4.14007 11.5802 68.6306 2.74449 10.3557 71.0616 1.36447 9.11571 73.0506 9.4032e-12 7.86013 74.5977 -1.34891 6.589 75.7027 -2.68227 5.30231 76.3657 -4.00006 4.00006 76.5867 -5.30231 2.68227 76.3657 -6.589 1.34891 75.7027 -7.86013 2.92232e-12 74.5977 -9.11571 -1.36447 73.0506 -10.3557 -2.74449 71.0616 -11.5802 -4.14007 68.6306 -12.7891 -5.5512 65.7575 6.84826 11.6735 66.7751 5.45786 10.418 69.6765 4.07784 9.152 72.1316 2.70819 7.87568 74.1403 1.34891 6.589 75.7027 9.12332e-12 5.29194 76.8186 -1.33854 3.98451 77.4882 -2.66671 2.66671 77.7114 -3.98451 1.33854 77.4882 -5.29194 3.56211e-12 76.8186 -6.589 -1.34891 75.7027 -7.87568 -2.70819 74.1403 -9.152 -4.07784 72.1316 -10.418 -5.45786 69.6765 -11.6735 -6.84826 66.7751 8.10902 10.5217 67.3856 6.74455 9.2246 70.3041 5.38527 7.92235 72.7736 4.03118 6.61492 74.7942 2.68227 5.30231 76.3657 1.33854 3.98451 77.4882 8.79155e-12 2.66152 78.1617 -1.33335 1.33335 78.3862 -2.66152 4.31086e-12 78.1617 -3.98451 -1.33854 77.4882 -5.30231 -2.68227 76.3657 -6.61492 -4.03118 74.7942 -7.92235 -5.38527 72.7736 -9.2246 -6.74455 70.3041 -10.5217 -8.10902 67.3856 9.33348 9.33348 67.5891 8.00013 8.00013 70.5133 6.66677 6.66677 72.9877 5.33342 5.33342 75.0121 4.00006 4.00006 76.5867 2.66671 2.66671 77.7114 1.33335 1.33335 78.3862 8.42322e-12 5.15269e-12 78.6111 -1.33335 -1.33335 78.3862 -2.66671 -2.66671 77.7114 -4.00006 -4.00006 76.5867 -5.33342 -5.33342 75.0121 -6.66677 -6.66677 72.9877 -8.00013 -8.00013 70.5133 -9.33348 -9.33348 67.5891 10.5217 8.10902 67.3856 9.2246 6.74455 70.3041 7.92235 5.38527 72.7736 6.61492 4.03118 74.7942 5.30231 2.68227 76.3657 3.98451 1.33854 77.4882 2.66152 5.1012e-12 78.1617 1.33335 -1.33335 78.3862 7.90636e-12 -2.66152 78.1617 -1.33854 -3.98451 77.4882 -2.68227 -5.30231 76.3657 -4.03118 -6.61492 74.7942 -5.38527 -7.92235 72.7736 -6.74455 -9.2246 70.3041 -8.10902 -10.5217 67.3856 11.6735 6.84826 66.7751 10.418 5.45786 69.6765 9.152 4.07784 72.1316 7.87568 2.70819 74.1403 6.589 1.34891 75.7027 5.29194 5.0302e-12 76.8186 3.98451 -1.33854 77.4882 2.66671 -2.66671 77.7114 1.33854 -3.98451 77.4882 7.30452e-12 -5.29194 76.8186 -1.34891 -6.589 75.7027 -2.70819 -7.87568 74.1403 -4.07784 -9.152 72.1316 -5.45786 -10.418 69.6765 -6.84826 -11.6735 66.7751 12.7891 5.5512 65.7575 11.5802 4.14007 68.6306 10.3557 2.74449 71.0616 9.11571 1.36447 73.0506 7.86013 4.92784e-12 74.5977 6.589 -1.34891 75.7027 5.30231 -2.68227 76.3657 4.00006 -4.00006 76.5867 2.68227 -5.30231 76.3657 1.34891 -6.589 75.7027 6.63536e-12 -7.86013 74.5977 -1.36447 -9.11571 73.0506 -2.74449 -10.3557 71.0616 -4.14007 -11.5802 68.6306 -5.5512 -12.7891 65.7575 13.8684 4.21784 64.333 12.7113 2.79115 67.1662 11.5335 1.38521 69.5636 10.335 4.76758e-12 71.525 9.11571 -1.36447 73.0506 7.87568 -2.70819 74.1403 6.61492 -4.03118 74.7942 5.33342 -5.33342 75.0121 4.03118 -6.61492 74.7942 2.70819 -7.87568 74.1403 1.36447 -9.11571 73.0506 5.91349e-12 -10.335 71.525 -1.38521 -11.5335 69.5636 -2.79115 -12.7113 67.1662 -4.21784 -13.8684 64.333 14.9114 2.84819 62.5014 13.8113 1.41113 65.2835 12.6854 4.53415e-12 67.6375 11.5335 -1.38521 69.5636 10.3557 -2.74449 71.0616 9.152 -4.07784 72.1316 7.92235 -5.38527 72.7736 6.66677 -6.66677 72.9877 5.38527 -7.92235 72.7736 4.07784 -9.152 72.1316 2.74449 -10.3557 71.0616 1.38521 -11.5335 69.5636 5.15943e-12 -12.6854 67.6375 -1.41113 -13.8113 65.2835 -2.84819 -14.9114 62.5014 15.9181 1.44224 60.2628 14.8803 4.19914e-12 62.9823 13.8113 -1.41113 65.2835 12.7113 -2.79115 67.1662 11.5802 -4.14007 68.6306 10.418 -5.45786 69.6765 9.2246 -6.74455 70.3041 8.00013 -8.00013 70.5133 6.74455 -9.2246 70.3041 5.45786 -10.418 69.6765 4.14007 -11.5802 68.6306 2.79115 -12.7113 67.1662 1.41113 -13.8113 65.2835 4.38671e-12 -14.8803 62.9823 -1.44224 -15.9181 60.2628 16.8884 3.75344e-12 57.6172 15.9181 -1.44224 60.2628 14.9114 -2.84819 62.5014 13.8684 -4.21784 64.333 12.7891 -5.5512 65.7575 11.6735 -6.84826 66.7751 10.5217 -8.10902 67.3856 9.33348 -9.33348 67.5891 8.10902 -10.5217 67.3856 6.84826 -11.6735 66.7751 5.5512 -12.7891 65.7575 4.21784 -13.8684 64.333 2.84819 -14.9114 62.5014 1.44224 -15.9181 60.2628 3.60956e-12 -16.8884 57.6172 2.48931e-12 15.4086 63.7806 -1.31587 14.5232 66.7092 -2.59862 13.6048 69.1872 -3.84825 12.6532 71.2147 -5.06477 11.6685 72.7917 -6.24818 10.6506 73.9181 -7.39847 9.59969 74.5939 -8.51564 8.51564 74.8192 -9.59969 7.39847 74.5939 -10.6506 6.24818 73.9181 -11.6685 5.06477 72.7917 -12.6532 3.84825 71.2147 -13.6048 2.59862 69.1872 -14.5232 1.31587 66.7092 -15.4086 -3.64453e-12 63.7806 1.31587 14.5232 66.7092 2.97443e-12 13.5764 69.7196 -1.28748 12.6011 72.2669 -2.54658 11.5975 74.351 -3.77729 10.5655 75.972 -4.97962 9.50508 77.1299 -6.15356 8.41629 77.8246 -7.29912 7.29912 78.0562 -8.41629 6.15356 77.8246 -9.50508 4.97962 77.1299 -10.5655 3.77729 75.972 -11.5975 2.54658 74.351 -12.6011 1.28748 72.2669 -13.5764 -3.00925e-12 69.7196 -14.5232 -1.31587 66.7092 2.59862 13.6048 69.1872 1.28748 12.6011 72.2669 3.31182e-12 11.5738 74.8728 -1.26383 10.5229 77.0048 -2.504 9.44831 78.6631 -3.72052 8.35006 79.8476 -4.91339 7.22815 80.5583 -6.0826 6.0826 80.7952 -7.22815 4.91339 80.5583 -8.35006 3.72052 79.8476 -9.44831 2.504 78.6631 -10.5229 1.26383 77.0048 -11.5738 -2.30839e-12 74.8728 -12.6011 -1.28748 72.2669 -13.6048 -2.59862 69.1872 3.84825 12.6532 71.2147 2.54658 11.5975 74.351 1.26383 10.5229 77.0048 3.50811e-12 9.42938 79.1761 -1.2449 8.31694 80.8649 -2.47089 7.18558 82.0712 -3.67794 6.03529 82.795 -4.86608 4.86608 83.0362 -6.03529 3.67794 82.795 -7.18558 2.47089 82.0712 -8.31694 1.2449 80.8649 -9.42938 -1.55811e-12 79.1761 -10.5229 -1.26383 77.0048 -11.5975 -2.54658 74.351 -12.6532 -3.84825 71.2147 5.06477 11.6685 72.7917 3.77729 10.5655 75.972 2.504 9.44831 78.6631 1.2449 8.31694 80.8649 3.57016e-12 7.17138 82.5774 -1.23071 6.01164 83.8006 -2.44723 4.83769 84.5346 -3.64956 3.64956 84.7792 -4.83769 2.44723 84.5346 -6.01164 1.23071 83.8006 -7.17138 -7.6377e-13 82.5774 -8.31694 -1.2449 80.8649 -9.44831 -2.504 78.6631 -10.5655 -3.77729 75.972 -11.6685 -5.06477 72.7917 6.24818 10.6506 73.9181 4.97962 9.50508 77.1299 3.72052 8.35006 79.8476 2.47089 7.18558 82.0712 1.23071 6.01164 83.8006 3.50705e-12 4.82823 85.036 -1.22125 3.63537 85.7772 -2.43304 2.43304 86.0242 -3.63537 1.22125 85.7772 -4.82823 6.77333e-14 85.036 -6.01164 -1.23071 83.8006 -7.18558 -2.47089 82.0712 -8.35006 -3.72052 79.8476 -9.50508 -4.97962 77.1299 -10.6506 -6.24818 73.9181 7.39847 9.59969 74.5939 6.15356 8.41629 77.8246 4.91339 7.22815 80.5583 3.67794 6.03529 82.795 2.44723 4.83769 84.5346 1.22125 3.63537 85.7772 3.32172e-12 2.42831 86.5227 -1.21652 1.21652 86.7712 -2.42831 9.31696e-13 86.5227 -3.63537 -1.22125 85.7772 -4.83769 -2.44723 84.5346 -6.03529 -3.67794 82.795 -7.22815 -4.91339 80.5583 -8.41629 -6.15356 77.8246 -9.59969 -7.39847 74.5939 8.51564 8.51564 74.8192 7.29912 7.29912 78.0562 6.0826 6.0826 80.7952 4.86608 4.86608 83.0362 3.64956 3.64956 84.7792 2.43304 2.43304 86.0242 1.21652 1.21652 86.7712 3.0239e-12 1.81262e-12 87.0202 -1.21652 -1.21652 86.7712 -2.43304 -2.43304 86.0242 -3.64956 -3.64956 84.7792 -4.86608 -4.86608 83.0362 -6.0826 -6.0826 80.7952 -7.29912 -7.29912 78.0562 -8.51564 -8.51564 74.8192 9.59969 7.39847 74.5939 8.41629 6.15356 77.8246 7.22815 4.91339 80.5583 6.03529 3.67794 82.795 4.83769 2.44723 84.5346 3.63537 1.22125 85.7772 2.42831 1.8341e-12 86.5227 1.21652 -1.21652 86.7712 2.40718e-12 -2.42831 86.5227 -1.22125 -3.63537 85.7772 -2.44723 -4.83769 84.5346 -3.67794 -6.03529 82.795 -4.91339 -7.22815 80.5583 -6.15356 -8.41629 77.8246 -7.39847 -9.59969 74.5939 10.6506 6.24818 73.9181 9.50508 4.97962 77.1299 8.35006 3.72052 79.8476 7.18558 2.47089 82.0712 6.01164 1.23071 83.8006 4.82823 1.81962e-12 85.036 3.63537 -1.22125 85.7772 2.43304 -2.43304 86.0242 1.22125 -3.63537 85.7772 1.66219e-12 -4.82823 85.036 -1.23071 -6.01164 83.8006 -2.47089 -7.18558 82.0712 -3.72052 -8.35006 79.8476 -4.97962 -9.50508 77.1299 -6.24818 -10.6506 73.9181 11.6685 5.06477 72.7917 10.5655 3.77729 75.972 9.44831 2.504 78.6631 8.31694 1.2449 80.8649 7.17138 1.7666e-12 82.5774 6.01164 -1.23071 83.8006 4.83769 -2.44723 84.5346 3.64956 -3.64956 84.7792 2.44723 -4.83769 84.5346 1.23071 -6.01164 83.8006 8.03381e-13 -7.17138 82.5774 -1.2449 -8.31694 80.8649 -2.504 -9.44831 78.6631 -3.77729 -10.5655 75.972 -5.06477 -11.6685 72.7917 12.6532 3.84825 71.2147 11.5975 2.54658 74.351 10.5229 1.26383 77.0048 9.42938 1.65603e-12 79.1761 8.31694 -1.2449 80.8649 7.18558 -2.47089 82.0712 6.03529 -3.67794 82.795 4.86608 -4.86608 83.0362 3.67794 -6.03529 82.795 2.47089 -7.18558 82.0712 1.2449 -8.31694 80.8649 -1.54501e-13 -9.42938 79.1761 -1.26383 -10.5229 77.0048 -2.54658 -11.5975 74.351 -3.84825 -12.6532 71.2147 13.6048 2.59862 69.1872 12.6011 1.28748 72.2669 11.5738 1.48129e-12 74.8728 10.5229 -1.26383 77.0048 9.44831 -2.504 78.6631 8.35006 -3.72052 79.8476 7.22815 -4.91339 80.5583 6.0826 -6.0826 80.7952 4.91339 -7.22815 80.5583 3.72052 -8.35006 79.8476 2.504 -9.44831 78.6631 1.26383 -10.5229 77.0048 -1.20253e-12 -11.5738 74.8728 -1.28748 -12.6011 72.2669 -2.59862 -13.6048 69.1872 14.5232 1.31587 66.7092 13.5764 1.22582e-12 69.7196 12.6011 -1.28748 72.2669 11.5975 -2.54658 74.351 10.5655 -3.77729 75.972 9.50508 -4.97962 77.1299 8.41629 -6.15356 77.8246 7.29912 -7.29912 78.0562 6.15356 -8.41629 77.8246 4.97962 -9.50508 77.1299 3.77729 -10.5655 75.972 2.54658 -11.5975 74.351 1.28748 -12.6011 72.2669 -2.3223e-12 -13.5764 69.7196 -1.31587 -14.5232 66.7092 15.4086 8.8253e-13 63.7806 14.5232 -1.31587 66.7092 13.6048 -2.59862 69.1872 12.6532 -3.84825 71.2147 11.6685 -5.06477 72.7917 10.6506 -6.24818 73.9181 9.59969 -7.39847 74.5939 8.51564 -8.51564 74.8192 7.39847 -9.59969 74.5939 6.24818 -10.6506 73.9181 5.06477 -11.6685 72.7917 3.84825 -12.6532 71.2147 2.59862 -13.6048 69.1872 1.31587 -14.5232 66.7092 -3.50346e-12 -15.4086 63.7806 -3.07857e-12 13.8067 68.8102 -1.17907 13.0134 71.9697 -2.32846 12.1904 74.6432 -3.44818 11.3377 76.8306 -4.53822 10.4554 78.5319 -5.5986 9.54336 79.7471 -6.6293 8.60168 80.4762 -7.63032 7.63032 80.7192 -8.60168 6.6293 80.4762 -9.54336 5.5986 79.7471 -10.4554 4.53822 78.5319 -11.3377 3.44818 76.8306 -12.1904 2.32846 74.6432 -13.0134 1.17907 71.9697 -13.8067 -7.45617e-12 68.8102 1.17907 13.0134 71.9697 -2.5271e-12 12.1649 75.2175 -1.15363 11.2911 77.9657 -2.28183 10.3918 80.2142 -3.38459 9.46706 81.963 -4.46192 8.5169 83.2122 -5.51382 7.5413 83.9617 -6.54028 6.54028 84.2115 -7.5413 5.51382 83.9617 -8.5169 4.46192 83.2122 -9.46706 3.38459 81.963 -10.3918 2.28183 80.2142 -11.2911 1.15363 77.9657 -12.1649 -6.5568e-12 75.2175 -13.0134 -1.17907 71.9697 2.32846 12.1904 74.6432 1.15363 11.2911 77.9657 -2.10363e-12 10.3706 80.7771 -1.13244 9.42891 83.0773 -2.24368 8.46603 84.8663 -3.33372 7.48196 86.1442 -4.40258 6.47669 86.911 -5.45023 5.45023 87.1665 -6.47669 4.40258 86.911 -7.48196 3.33372 86.1442 -8.46603 2.24368 84.8663 -9.42891 1.13244 83.0773 -10.3706 -5.64153e-12 80.7771 -11.2911 -1.15363 77.9657 -12.1904 -2.32846 74.6432 3.44818 11.3377 76.8306 2.28183 10.3918 80.2142 1.13244 9.42891 83.0773 -1.81234e-12 8.44907 85.4198 -1.11548 7.45229 87.2418 -2.214 6.43854 88.5432 -3.29557 5.40784 89.324 -4.36018 4.36018 89.5843 -5.40784 3.29557 89.324 -6.43854 2.214 88.5432 -7.45229 1.11548 87.2418 -8.44907 -4.72707e-12 85.4198 -9.42891 -1.13244 83.0773 -10.3918 -2.28183 80.2142 -11.3377 -3.44818 76.8306 4.53822 10.4554 78.5319 3.38459 9.46706 81.963 2.24368 8.46603 84.8663 1.11548 7.45229 87.2418 -1.65456e-12 6.42582 89.0893 -1.10276 5.38665 90.409 -2.19281 4.33475 91.2008 -3.27014 3.27014 91.4647 -4.33475 2.19281 91.2008 -5.38665 1.10276 90.409 -6.42582 -3.82014e-12 89.0893 -7.45229 -1.11548 87.2418 -8.46603 -2.24368 84.8663 -9.46706 -3.38459 81.963 -10.4554 -4.53822 78.5319 5.5986 9.54336 79.7471 4.46192 8.5169 83.2122 3.33372 7.48196 86.1442 2.214 6.43854 88.5432 1.10276 5.38665 90.409 -1.62923e-12 4.32627 91.7417 -1.09429 3.25742 92.5414 -2.18009 2.18009 92.8079 -3.25742 1.09429 92.5414 -4.32627 -2.92332e-12 91.7417 -5.38665 -1.10276 90.409 -6.43854 -2.214 88.5432 -7.48196 -3.33372 86.1442 -8.5169 -4.46192 83.2122 -9.54336 -5.5986 79.7471 6.6293 8.60168 80.4762 5.51382 7.5413 83.9617 4.40258 6.47669 86.911 3.29557 5.40784 89.324 2.19281 4.33475 91.2008 1.09429 3.25742 92.5414 -1.73981e-12 2.17585 93.3457 -1.09005 1.09005 93.6138 -2.17585 -2.04593e-12 93.3457 -3.25742 -1.09429 92.5414 -4.33475 -2.19281 91.2008 -5.40784 -3.29557 89.324 -6.47669 -4.40258 86.911 -7.5413 -5.51382 83.9617 -8.60168 -6.6293 80.4762 7.63032 7.63032 80.7192 6.54028 6.54028 84.2115 5.45023 5.45023 87.1665 4.36018 4.36018 89.5843 3.27014 3.27014 91.4647 2.18009 2.18009 92.8079 1.09005 1.09005 93.6138 -1.98602e-12 -1.19932e-12 93.8825 -1.09005 -1.09005 93.6138 -2.18009 -2.18009 92.8079 -3.27014 -3.27014 91.4647 -4.36018 -4.36018 89.5843 -5.45023 -5.45023 87.1665 -6.54028 -6.54028 84.2115 -7.63032 -7.63032 80.7192 8.60168 6.6293 80.4762 7.5413 5.51382 83.9617 6.47669 4.40258 86.911 5.40784 3.29557 89.324 4.33475 2.19281 91.2008 3.25742 1.09429 92.5414 2.17585 -1.1098e-12 93.3457 1.09005 -1.09005 93.6138 -2.62496e-12 -2.17585 93.3457 -1.09429 -3.25742 92.5414 -2.19281 -4.33475 91.2008 -3.29557 -5.40784 89.324 -4.40258 -6.47669 86.911 -5.51382 -7.5413 83.9617 -6.6293 -8.60168 80.4762 9.54336 5.5986 79.7471 8.5169 4.46192 83.2122 7.48196 3.33372 86.1442 6.43854 2.214 88.5432 5.38665 1.10276 90.409 4.32627 -1.0612e-12 91.7417 3.25742 -1.09429 92.5414 2.18009 -2.18009 92.8079 1.09429 -3.25742 92.5414 -3.38964e-12 -4.32627 91.7417 -1.10276 -5.38665 90.409 -2.214 -6.43854 88.5432 -3.33372 -7.48196 86.1442 -4.46192 -8.5169 83.2122 -5.5986 -9.54336 79.7471 10.4554 4.53822 78.5319 9.46706 3.38459 81.963 8.46603 2.24368 84.8663 7.45229 1.11548 87.2418 6.42582 -1.05445e-12 89.0893 5.38665 -1.10276 90.409 4.33475 -2.19281 91.2008 3.27014 -3.27014 91.4647 2.19281 -4.33475 91.2008 1.10276 -5.38665 90.409 -4.27192e-12 -6.42582 89.0893 -1.11548 -7.45229 87.2418 -2.24368 -8.46603 84.8663 -3.38459 -9.46706 81.963 -4.53822 -10.4554 78.5319 11.3377 3.44818 76.8306 10.3918 2.28183 80.2142 9.42891 1.13244 83.0773 8.44907 -1.0966e-12 85.4198 7.45229 -1.11548 87.2418 6.43854 -2.214 88.5432 5.40784 -3.29557 89.324 4.36018 -4.36018 89.5843 3.29557 -5.40784 89.324 2.214 -6.43854 88.5432 1.11548 -7.45229 87.2418 -5.25852e-12 -8.44907 85.4198 -1.13244 -9.42891 83.0773 -2.28183 -10.3918 80.2142 -3.44818 -11.3377 76.8306 12.1904 2.32846 74.6432 11.2911 1.15363 77.9657 10.3706 -1.19413e-12 80.7771 9.42891 -1.13244 83.0773 8.46603 -2.24368 84.8663 7.48196 -3.33372 86.1442 6.47669 -4.40258 86.911 5.45023 -5.45023 87.1665 4.40258 -6.47669 86.911 3.33372 -7.48196 86.1442 2.24368 -8.46603 84.8663 1.13244 -9.42891 83.0773 -6.34431e-12 -10.3706 80.7771 -1.15363 -11.2911 77.9657 -2.32846 -12.1904 74.6432 13.0134 1.17907 71.9697 12.1649 -1.34894e-12 75.2175 11.2911 -1.15363 77.9657 10.3918 -2.28183 80.2142 9.46706 -3.38459 81.963 8.5169 -4.46192 83.2122 7.5413 -5.51382 83.9617 6.54028 -6.54028 84.2115 5.51382 -7.5413 83.9617 4.46192 -8.5169 83.2122 3.38459 -9.46706 81.963 2.28183 -10.3918 80.2142 1.15363 -11.2911 77.9657 -7.51262e-12 -12.1649 75.2175 -1.17907 -13.0134 71.9697 13.8067 -1.56525e-12 68.8102 13.0134 -1.17907 71.9697 12.1904 -2.32846 74.6432 11.3377 -3.44818 76.8306 10.4554 -4.53822 78.5319 9.54336 -5.5986 79.7471 8.60168 -6.6293 80.4762 7.63032 -7.63032 80.7192 6.6293 -8.60168 80.4762 5.5986 -9.54336 79.7471 4.53822 -10.4554 78.5319 3.44818 -11.3377 76.8306 2.32846 -12.1904 74.6432 1.17907 -13.0134 71.9697 -8.75619e-12 -13.8067 68.8102 -6.99346e-12 12.0832 73.8398 -1.03188 11.3889 77.2303 -2.0378 10.6687 80.0991 -3.01775 9.92244 82.4464 -3.97173 9.15024 84.2721 -4.89973 8.35208 85.5761 -5.80177 7.52795 86.3585 -6.67784 6.67784 86.6193 -7.52795 5.80177 86.3585 -8.35208 4.89973 85.5761 -9.15024 3.97173 84.2721 -9.92244 3.01775 82.4464 -10.6687 2.0378 80.0991 -11.3889 1.03188 77.2303 -12.0832 -9.66482e-12 73.8398 1.03188 11.3889 77.2303 -6.68825e-12 10.6464 80.7155 -1.00963 9.88163 83.6645 -1.99699 9.0946 86.0774 -2.9621 8.2853 87.954 -3.90495 7.45375 89.2945 -4.82554 6.59994 90.0988 -5.72387 5.72387 90.3669 -6.59994 4.82554 90.0988 -7.45375 3.90495 89.2945 -8.2853 2.9621 87.954 -9.0946 1.99699 86.0774 -9.88163 1.00963 83.6645 -10.6464 -8.7769e-12 80.7155 -11.3889 -1.03188 77.2303 2.0378 10.6687 80.0991 1.00963 9.88163 83.6645 -6.45743e-12 9.07605 86.6814 -0.991076 8.25191 89.1497 -1.9636 7.40923 91.0695 -2.91758 6.548 92.4408 -3.85301 5.66822 93.2636 -4.76989 4.76989 93.5379 -5.66822 3.85301 93.2636 -6.548 2.91758 92.4408 -7.40923 1.9636 91.0695 -8.25191 0.991076 89.1497 -9.07605 -7.89524e-12 86.6814 -9.88163 -1.00963 83.6645 -10.6687 -2.0378 80.0991 3.01775 9.92244 82.4464 1.99699 9.0946 86.0774 0.991076 8.25191 89.1497 -6.30467e-12 7.39439 91.6635 -0.976237 6.52203 93.6186 -1.93763 5.63483 95.0151 -2.88419 4.73279 95.853 -3.81591 3.81591 96.1323 -4.73279 2.88419 95.853 -5.63483 1.93763 95.0151 -6.52203 0.976237 93.6186 -7.39439 -7.02479e-12 91.6635 -8.25191 -0.99107