<?xml version="1.0"?> 
<VTKFile type="StructuredGrid" version="0.1"> 
<StructuredGrid WholeExtent="0 14 0 14 0 29"> 
<Piece Extent="0 14 0 14 0 29"> 
<PointData>
<DataArray type="Float32" Name="efield" format="ascii" NumberOfComponents="3"> 
4.90807e-12 -19.4942 5.68069 1.26793 -17.9772 6.09017 2.55502 -16.4794 6.43666 3.86126 -15.0008 6.72015 5.18666 -13.5413 6.94064 6.53122 -12.101 7.09814 7.89493 -10.6798 7.19263 9.27779 -9.27779 7.22413 10.6798 -7.89493 7.19263 12.101 -6.53122 7.09814 13.5413 -5.18666 6.94064 15.0008 -3.86126 6.72015 16.4794 -2.55502 6.43666 17.9772 -1.26793 6.09017 19.4942 2.73559e-13 5.68069 -1.26793 -17.9772 6.09017 4.29648e-12 -16.4959 6.25893 1.28435 -15.0309 6.40172 2.58512 -13.5824 6.51855 3.90231 -12.1502 6.60942 5.23592 -10.7345 6.67432 6.58595 -9.33526 6.71327 7.95239 -7.95239 6.72625 9.33526 -6.58595 6.71327 10.7345 -5.23592 6.67432 12.1502 -3.90231 6.60942 13.5824 -2.58512 6.51855 15.0309 -1.28435 6.40172 16.4959 4.83431e-13 6.25893 17.9772 1.26793 6.09017 -2.55502 -16.4794 6.43666 -1.28435 -15.0309 6.40172 3.72437e-12 -13.596 6.37215 1.29803 -12.1749 6.34796 2.60975 -10.7674 6.32915 3.93515 -9.37357 6.31571 5.27423 -7.99344 6.30765 6.62699 -6.62699 6.30496 7.99344 -5.27423 6.30765 9.37357 -3.93515 6.31571 10.7674 -2.60975 6.32915 12.1749 -1.29803 6.34796 13.596 6.07723e-13 6.37215 15.0309 1.28435 6.40172 16.4794 2.55502 6.43666 -3.86126 -15.0008 6.72015 -2.58512 -13.5824 6.51855 -1.29803 -12.1749 6.34796 3.19119e-12 -10.7783 6.20839 1.30898 -9.39272 6.09984 2.62891 -8.01807 6.0223 3.95978 -6.65436 5.97578 5.3016 -5.3016 5.96027 6.65436 -3.95978 5.97578 8.01807 -2.62891 6.0223 9.39272 -1.30898 6.09984 10.7783 6.59469e-13 6.20839 12.1749 1.29803 6.34796 13.5824 2.58512 6.51855 15.0008 3.86126 6.72015 -5.18666 -13.5413 6.94064 -3.90231 -12.1502 6.60942 -2.60975 -10.7674 6.32915 -1.30898 -9.39272 6.09984 2.69912e-12 -8.02628 5.92149 1.31719 -6.66804 5.79409 2.64259 -5.31801 5.71765 3.9762 -3.9762 5.69218 5.31801 -2.64259 5.71765 6.66804 -1.31719 5.79409 8.02628 6.35384e-13 5.92149 9.39272 1.30898 6.09984 10.7674 2.60975 6.32915 12.1502 3.90231 6.60942 13.5413 5.18666 6.94064 -6.53122 -12.101 7.09814 -5.23592 -10.7345 6.67432 -3.93515 -9.37357 6.31571 -2.62891 -8.01807 6.0223 -1.31719 -6.66804 5.79409 2.25521e-12 -5.32349 5.63109 1.32266 -3.98441 5.53328 2.6508 -2.6508 5.50068 3.98441 -1.32266 5.53328 5.32349 5.3421e-13 5.63109 6.66804 1.31719 5.79409 8.01807 2.62891 6.0223 9.37357 3.93515 6.31571 10.7345 5.23592 6.67432 12.101 6.53122 7.09814 -7.89493 -10.6798 7.19263 -6.58595 -9.33526 6.71327 -5.27423 -7.99344 6.30765 -3.95978 -6.65436 5.97578 -2.64259 -5.31801 5.71765 -1.32266 -3.98441 5.53328 1.8575e-12 -2.65353 5.42266 1.3254 -1.3254 5.38578 2.65353 3.5419e-13 5.42266 3.98441 1.32266 5.53328 5.31801 2.64259 5.71765 6.65436 3.95978 5.97578 7.99344 5.27423 6.30765 9.33526 6.58595 6.71327 10.6798 7.89493 7.19263 -9.27779 -9.27779 7.22413 -7.95239 -7.95239 6.72625 -6.62699 -6.62699 6.30496 -5.3016 -5.3016 5.96027 -3.9762 -3.9762 5.69218 -2.6508 -2.6508 5.50068 -1.3254 -1.3254 5.38578 1.51066e-12 1.03832e-13 5.34749 1.3254 1.3254 5.38578 2.6508 2.6508 5.50068 3.9762 3.9762 5.69218 5.3016 5.3016 5.96027 6.62699 6.62699 6.30496 7.95239 7.95239 6.72625 9.27779 9.27779 7.22413 -10.6798 -7.89493 7.19263 -9.33526 -6.58595 6.71327 -7.99344 -5.27423 6.30765 -6.65436 -3.95978 5.97578 -5.31801 -2.64259 5.71765 -3.98441 -1.32266 5.53328 -2.65353 1.04822e-12 5.42266 -1.3254 1.3254 5.38578 1.41035e-12 2.65353 5.42266 1.32266 3.98441 5.53328 2.64259 5.31801 5.71765 3.95978 6.65436 5.97578 5.27423 7.99344 6.30765 6.58595 9.33526 6.71327 7.89493 10.6798 7.19263 -12.101 -6.53122 7.09814 -10.7345 -5.23592 6.67432 -9.37357 -3.93515 6.31571 -8.01807 -2.62891 6.0223 -6.66804 -1.31719 5.79409 -5.32349 2.03493e-12 5.63109 -3.98441 1.32266 5.53328 -2.6508 2.6508 5.50068 -1.32266 3.98441 5.53328 1.47746e-12 5.32349 5.63109 1.31719 6.66804 5.79409 2.62891 8.01807 6.0223 3.93515 9.37357 6.31571 5.23592 10.7345 6.67432 6.53122 12.101 7.09814 -13.5413 -5.18666 6.94064 -12.1502 -3.90231 6.60942 -10.7674 -2.60975 6.32915 -9.39272 -1.30898 6.09984 -8.02628 3.04956e-12 5.92149 -6.66804 1.31719 5.79409 -5.31801 2.64259 5.71765 -3.9762 3.9762 5.69218 -2.64259 5.31801 5.71765 -1.31719 6.66804 5.79409 1.71019e-12 8.02628 5.92149 1.30898 9.39272 6.09984 2.60975 10.7674 6.32915 3.90231 12.1502 6.60942 5.18666 13.5413 6.94064 -15.0008 -3.86126 6.72015 -13.5824 -2.58512 6.51855 -12.1749 -1.29803 6.34796 -10.7783 4.0874e-12 6.20839 -9.39272 1.30898 6.09984 -8.01807 2.62891 6.0223 -6.65436 3.95978 5.97578 -5.3016 5.3016 5.96027 -3.95978 6.65436 5.97578 -2.62891 8.01807 6.0223 -1.30898 9.39272 6.09984 2.10165e-12 10.7783 6.20839 1.29803 12.1749 6.34796 2.58512 13.5824 6.51855 3.86126 15.0008 6.72015 -16.4794 -2.55502 6.43666 -15.0309 -1.28435 6.40172 -13.596 5.14572e-12 6.37215 -12.1749 1.29803 6.34796 -10.7674 2.60975 6.32915 -9.37357 3.93515 6.31571 -7.99344 5.27423 6.30765 -6.62699 6.62699 6.30496 -5.27423 7.99344 6.30765 -3.93515 9.37357 6.31571 -2.60975 10.7674 6.32915 -1.29803 12.1749 6.34796 2.65299e-12 13.596 6.37215 1.28435 15.0309 6.40172 2.55502 16.4794 6.43666 -17.9772 -1.26793 6.09017 -16.4959 6.2185e-12 6.25893 -15.0309 1.28435 6.40172 -13.5824 2.58512 6.51855 -12.1502 3.90231 6.60942 -10.7345 5.23592 6.67432 -9.33526 6.58595 6.71327 -7.95239 7.95239 6.72625 -6.58595 9.33526 6.71327 -5.23592 10.7345 6.67432 -3.90231 12.1502 6.60942 -2.58512 13.5824 6.51855 -1.28435 15.0309 6.40172 3.35731e-12 16.4959 6.25893 1.26793 17.9772 6.09017 -19.4942 7.2955e-12 5.68069 -17.9772 1.26793 6.09017 -16.4794 2.55502 6.43666 -15.0008 3.86126 6.72015 -13.5413 5.18666 6.94064 -12.101 6.53122 7.09814 -10.6798 7.89493 7.19263 -9.27779 9.27779 7.22413 -7.89493 10.6798 7.19263 -6.53122 12.101 7.09814 -5.18666 13.5413 6.94064 -3.86126 15.0008 6.72015 -2.55502 16.4794 6.43666 -1.26793 17.9772 6.09017 4.21707e-12 19.4942 5.68069 -6.42153e-13 -17.8452 -9.8062 1.46088 -16.7568 -9.72161 2.89311 -15.6397 -9.65004 4.2967 -14.494 -9.59147 5.67163 -13.3196 -9.54593 7.01791 -12.1165 -9.51339 8.33554 -10.8849 -9.49387 9.62453 -9.62453 -9.48736 10.8849 -8.33554 -9.49387 12.1165 -7.01791 -9.51339 13.3196 -5.67163 -9.54593 14.494 -4.2967 -9.59147 15.6397 -2.89311 -9.65004 16.7568 -1.46088 -9.72161 17.8452 6.52811e-13 -9.8062 -1.46088 -16.7568 -9.72161 -1.72106e-13 -15.6151 -9.60593 1.43632 -14.4489 -9.50804 2.84809 -13.2582 -9.42795 4.2353 -12.0429 -9.36565 5.59796 -10.803 -9.32116 6.93605 -9.53858 -9.29446 8.24959 -8.24959 -9.28556 9.53858 -6.93605 -9.29446 10.803 -5.59796 -9.32116 12.0429 -4.2353 -9.36565 13.2582 -2.84809 -9.42795 14.4489 -1.43632 -9.50804 15.6151 6.72345e-13 -9.60593 16.7568 1.46088 -9.72161 -2.89311 -15.6397 -9.65004 -1.43632 -14.4489 -9.50804 2.34592e-13 -13.2377 -9.38788 1.41586 -12.006 -9.28957 2.81126 -10.7539 -9.21311 4.18619 -9.48128 -9.1585 5.54066 -8.1882 -9.12573 6.87466 -6.87466 -9.11481 8.1882 -5.54066 -9.12573 9.48128 -4.18619 -9.1585 10.7539 -2.81126 -9.21311 12.006 -1.41586 -9.28957 13.2377 7.07798e-13 -9.38788 14.4489 1.43632 -9.50804 15.6397 2.89311 -9.65004 -4.2967 -14.494 -9.59147 -2.84809 -13.2582 -9.42795 -1.41586 -12.006 -9.28957 5.76828e-13 -10.7375 -9.17636 1.39949 -9.45263 -9.08831 2.78261 -8.15137 -9.02541 4.14935 -6.83373 -8.98767 5.49973 -5.49973 -8.9751 6.83373 -4.14935 -8.98767 8.15137 -2.78261 -9.02541 9.45263 -1.39949 -9.08831 10.7375 7.66709e-13 -9.17636 12.006 1.41586 -9.28957 13.2582 2.84809 -9.42795 14.494 4.2967 -9.59147 -5.67163 -13.3196 -9.54593 -4.2353 -12.0429 -9.36565 -2.81126 -10.7539 -9.21311 -1.39949 -9.45263 -9.08831 8.46386e-13 -8.13909 -8.99124 1.38721 -6.81327 -8.9219 2.76214 -5.47517 -8.8803 4.1248 -4.1248 -8.86643 5.47517 -2.76214 -8.8803 6.81327 -1.38721 -8.9219 8.13909 8.45456e-13 -8.99124 9.45263 1.39949 -9.08831 10.7539 2.81126 -9.21311 12.0429 4.2353 -9.36565 13.3196 5.67163 -9.54593 -7.01791 -12.1165 -9.51339 -5.59796 -10.803 -9.32116 -4.18619 -9.48128 -9.1585 -2.78261 -8.15137 -9.02541 -1.38721 -6.81327 -8.9219 1.04916e-12 -5.46699 -8.84797 1.37903 -4.11252 -8.8036 2.74986 -2.74986 -8.78882 4.11252 -1.37903 -8.8036 5.46699 9.42319e-13 -8.84797 6.81327 1.38721 -8.9219 8.15137 2.78261 -9.02541 9.48128 4.18619 -9.1585 10.803 5.59796 -9.32116 12.1165 7.01791 -9.51339 -8.33554 -10.8849 -9.49387 -6.93605 -9.53858 -9.29446 -5.54066 -8.1882 -9.12573 -4.14935 -6.83373 -8.98767 -2.76214 -5.47517 -8.8803 -1.37903 -4.11252 -8.8036 1.17859e-12 -2.74577 -8.75759 1.37493 -1.37493 -8.74225 2.74577 1.0568e-12 -8.75759 4.11252 1.37903 -8.8036 5.47517 2.76214 -8.8803 6.83373 4.14935 -8.98767 8.1882 5.54066 -9.12573 9.53858 6.93605 -9.29446 10.8849 8.33554 -9.49387 -9.62453 -9.62453 -9.48736 -8.24959 -8.24959 -9.28556 -6.87466 -6.87466 -9.11481 -5.49973 -5.49973 -8.9751 -4.1248 -4.1248 -8.86643 -2.74986 -2.74986 -8.78882 -1.37493 -1.37493 -8.74225 1.23287e-12 1.19391e-12 -8.72672 1.37493 1.37493 -8.74225 2.74986 2.74986 -8.78882 4.1248 4.1248 -8.86643 5.49973 5.49973 -8.9751 6.87466 6.87466 -9.11481 8.24959 8.24959 -9.28556 9.62453 9.62453 -9.48736 -10.8849 -8.33554 -9.49387 -9.53858 -6.93605 -9.29446 -8.1882 -5.54066 -9.12573 -6.83373 -4.14935 -8.98767 -5.47517 -2.76214 -8.8803 -4.11252 -1.37903 -8.8036 -2.74577 1.15696e-12 -8.75759 -1.37493 1.37493 -8.74225 1.26976e-12 2.74577 -8.75759 1.37903 4.11252 -8.8036 2.76214 5.47517 -8.8803 4.14935 6.83373 -8.98767 5.54066 8.1882 -9.12573 6.93605 9.53858 -9.29446 8.33554 10.8849 -9.49387 -12.1165 -7.01791 -9.51339 -10.803 -5.59796 -9.32116 -9.48128 -4.18619 -9.1585 -8.15137 -2.78261 -9.02541 -6.81327 -1.38721 -8.9219 -5.46699 1.23845e-12 -8.84797 -4.11252 1.37903 -8.8036 -2.74986 2.74986 -8.78882 -1.37903 4.11252 -8.8036 1.32627e-12 5.46699 -8.84797 1.38721 6.81327 -8.9219 2.78261 8.15137 -9.02541 4.18619 9.48128 -9.1585 5.59796 10.803 -9.32116 7.01791 12.1165 -9.51339 -13.3196 -5.67163 -9.54593 -12.0429 -4.2353 -9.36565 -10.7539 -2.81126 -9.21311 -9.45263 -1.39949 -9.08831 -8.13909 1.43013e-12 -8.99124 -6.81327 1.38721 -8.9219 -5.47517 2.76214 -8.8803 -4.1248 4.1248 -8.86643 -2.76214 5.47517 -8.8803 -1.38721 6.81327 -8.9219 1.40699e-12 8.13909 -8.99124 1.39949 9.45263 -9.08831 2.81126 10.7539 -9.21311 4.2353 12.0429 -9.36565 5.67163 13.3196 -9.54593 -14.494 -4.2967 -9.59147 -13.2582 -2.84809 -9.42795 -12.006 -1.41586 -9.28957 -10.7375 1.73217e-12 -9.17636 -9.45263 1.39949 -9.08831 -8.15137 2.78261 -9.02541 -6.83373 4.14935 -8.98767 -5.49973 5.49973 -8.9751 -4.14935 6.83373 -8.98767 -2.78261 8.15137 -9.02541 -1.39949 9.45263 -9.08831 1.50446e-12 10.7375 -9.17636 1.41586 12.006 -9.28957 2.84809 13.2582 -9.42795 4.2967 14.494 -9.59147 -15.6397 -2.89311 -9.65004 -14.4489 -1.43632 -9.50804 -13.2377 2.14451e-12 -9.38788 -12.006 1.41586 -9.28957 -10.7539 2.81126 -9.21311 -9.48128 4.18619 -9.1585 -8.1882 5.54066 -9.12573 -6.87466 6.87466 -9.11481 -5.54066 8.1882 -9.12573 -4.18619 9.48128 -9.1585 -2.81126 10.7539 -9.21311 -1.41586 12.006 -9.28957 1.62514e-12 13.2377 -9.38788 1.43632 14.4489 -9.50804 2.89311 15.6397 -9.65004 -16.7568 -1.46088 -9.72161 -15.6151 2.66716e-12 -9.60593 -14.4489 1.43632 -9.50804 -13.2582 2.84809 -9.42795 -12.0429 4.2353 -9.36565 -10.803 5.59796 -9.32116 -9.53858 6.93605 -9.29446 -8.24959 8.24959 -9.28556 -6.93605 9.53858 -9.29446 -5.59796 10.803 -9.32116 -4.2353 12.0429 -9.36565 -2.84809 13.2582 -9.42795 -1.43632 14.4489 -9.50804 1.76836e-12 15.6151 -9.60593 1.46088 16.7568 -9.72161 -17.8452 3.28804e-12 -9.8062 -16.7568 1.46088 -9.72161 -15.6397 2.89311 -9.65004 -14.494 4.2967 -9.59147 -13.3196 5.67163 -9.54593 -12.1165 7.01791 -9.51339 -10.8849 8.33554 -9.49387 -9.62453 9.62453 -9.48736 -8.33554 10.8849 -9.49387 -7.01791 12.1165 -9.51339 -5.67163 13.3196 -9.54593 -4.2967 14.494 -9.59147 -2.89311 15.6397 -9.65004 -1.46088 16.7568 -9.72161 1.92646e-12 17.8452 -9.8062 5.79981e-13 -16.2722 -21.8126 1.31735 -15.265 -21.9801 2.61085 -14.2339 -22.1218 3.8805 -13.1789 -22.2378 5.12629 -12.1001 -22.328 6.34823 -10.9974 -22.3924 7.54631 -9.87091 -22.4311 8.72054 -8.72054 -22.444 9.87091 -7.54631 -22.4311 10.9974 -6.34823 -22.3924 12.1001 -5.12629 -22.328 13.1789 -3.8805 -22.2378 14.2339 -2.61085 -22.1218 15.265 -1.31735 -21.9801 16.2722 1.37224e-12 -21.8126 -1.31735 -15.265 -21.9801 6.23992e-13 -14.2134 -22.1642 1.29691 -13.1414 -22.3201 2.57337 -12.049 -22.4476 3.82938 -10.9361 -22.5467 5.06495 -9.80276 -22.6175 6.28007 -8.64898 -22.66 7.47475 -7.47475 -22.6742 8.64898 -6.28007 -22.66 9.80276 -5.06495 -22.6175 10.9361 -3.82938 -22.5467 12.049 -2.57337 -22.4476 13.1414 -1.29691 -22.3201 14.2134 1.16288e-12 -22.1642 15.265 1.31735 -21.9801 -2.61085 -14.2339 -22.1218 -1.29691 -13.1414 -22.3201 6.90833e-13 -12.032 -22.4878 1.27987 -10.9054 -22.625 2.5427 -9.76187 -22.7318 3.78849 -8.60127 -22.808 5.01724 -7.42363 -22.8538 6.22896 -6.22896 -22.869 7.42363 -5.01724 -22.8538 8.60127 -3.78849 -22.808 9.76187 -2.5427 -22.7318 10.9054 -1.27987 -22.625 12.032 1.0171e-12 -22.4878 13.1414 1.29691 -22.3201 14.2339 2.61085 -22.1218 -3.8805 -13.1789 -22.2378 -2.57337 -12.049 -22.4476 -1.27987 -10.9054 -22.625 7.69822e-13 -9.74824 -22.7702 1.26624 -8.57742 -22.8832 2.51884 -7.39296 -22.9638 3.75782 -6.19488 -23.0122 4.98316 -4.98316 -23.0284 6.19488 -3.75782 -23.0122 7.39296 -2.51884 -22.9638 8.57742 -1.26624 -22.8832 9.74824 9.36093e-13 -22.7702 10.9054 1.27987 -22.625 12.049 2.57337 -22.4476 13.1789 3.8805 -22.2378 -5.12629 -12.1001 -22.328 -3.82938 -10.9361 -22.5467 -2.5427 -9.76187 -22.7318 -1.26624 -8.57742 -22.8832 8.64488e-13 -7.38274 -23.0009 1.25601 -6.17784 -23.0851 2.50181 -4.96272 -23.1355 3.73737 -3.73737 -23.1523 4.96272 -2.50181 -23.1355 6.17784 -1.25601 -23.0851 7.38274 9.21466e-13 -23.0009 8.57742 1.26624 -22.8832 9.76187 2.5427 -22.7318 10.9361 3.82938 -22.5467 12.1001 5.12629 -22.328 -6.34823 -10.9974 -22.3924 -5.06495 -9.80276 -22.6175 -3.78849 -8.60127 -22.808 -2.51884 -7.39296 -22.9638 -1.25601 -6.17784 -23.0851 9.70741e-13 -4.9559 -23.1716 1.2492 -3.72715 -23.2236 2.49158 -2.49158 -23.2409 3.72715 -1.2492 -23.2236 4.9559 9.7024e-13 -23.1716 6.17784 1.25601 -23.0851 7.39296 2.51884 -22.9638 8.60127 3.78849 -22.808 9.80276 5.06495 -22.6175 10.9974 6.34823 -22.3924 -7.54631 -9.87091 -22.4311 -6.28007 -8.64898 -22.66 -5.01724 -7.42363 -22.8538 -3.75782 -6.19488 -23.0122 -2.50181 -4.96272 -23.1355 -1.2492 -3.72715 -23.2236 1.08252e-12 -2.48817 -23.2764 1.24579 -1.24579 -23.294 2.48817 1.07452e-12 -23.2764 3.72715 1.2492 -23.2236 4.96272 2.50181 -23.1355 6.19488 3.75782 -23.0122 7.42363 5.01724 -22.8538 8.64898 6.28007 -22.66 9.87091 7.54631 -22.4311 -8.72054 -8.72054 -22.444 -7.47475 -7.47475 -22.6742 -6.22896 -6.22896 -22.869 -4.98316 -4.98316 -23.0284 -3.73737 -3.73737 -23.1523 -2.49158 -2.49158 -23.2409 -1.24579 -1.24579 -23.294 1.19764e-12 1.24498e-12 -23.3117 1.24579 1.24579 -23.294 2.49158 2.49158 -23.2409 3.73737 3.73737 -23.1523 4.98316 4.98316 -23.0284 6.22896 6.22896 -22.869 7.47475 7.47475 -22.6742 8.72054 8.72054 -22.444 -9.87091 -7.54631 -22.4311 -8.64898 -6.28007 -22.66 -7.42363 -5.01724 -22.8538 -6.19488 -3.75782 -23.0122 -4.96272 -2.50181 -23.1355 -3.72715 -1.2492 -23.2236 -2.48817 9.96647e-13 -23.2764 -1.24579 1.24579 -23.294 1.16648e-12 2.48817 -23.2764 1.2492 3.72715 -23.2236 2.50181 4.96272 -23.1355 3.75782 6.19488 -23.0122 5.01724 7.42363 -22.8538 6.28007 8.64898 -22.66 7.54631 9.87091 -22.4311 -10.9974 -6.34823 -22.3924 -9.80276 -5.06495 -22.6175 -8.60127 -3.78849 -22.808 -7.39296 -2.51884 -22.9638 -6.17784 -1.25601 -23.0851 -4.9559 7.32414e-13 -23.1716 -3.72715 1.2492 -23.2236 -2.49158 2.49158 -23.2409 -1.2492 3.72715 -23.2236 1.06162e-12 4.9559 -23.1716 1.25601 6.17784 -23.0851 2.51884 7.39296 -22.9638 3.78849 8.60127 -22.808 5.06495 9.80276 -22.6175 6.34823 10.9974 -22.3924 -12.1001 -5.12629 -22.328 -10.9361 -3.82938 -22.5467 -9.76187 -2.5427 -22.7318 -8.57742 -1.26624 -22.8832 -7.38274 4.43645e-13 -23.0009 -6.17784 1.25601 -23.0851 -4.96272 2.50181 -23.1355 -3.73737 3.73737 -23.1523 -2.50181 4.96272 -23.1355 -1.25601 6.17784 -23.0851 8.86735e-13 7.38274 -23.0009 1.26624 8.57742 -22.8832 2.5427 9.76187 -22.7318 3.82938 10.9361 -22.5467 5.12629 12.1001 -22.328 -13.1789 -3.8805 -22.2378 -12.049 -2.57337 -22.4476 -10.9054 -1.27987 -22.625 -9.74824 1.34726e-13 -22.7702 -8.57742 1.26624 -22.8832 -7.39296 2.51884 -22.9638 -6.19488 3.75782 -23.0122 -4.98316 4.98316 -23.0284 -3.75782 6.19488 -23.0122 -2.51884 7.39296 -22.9638 -1.26624 8.57742 -22.8832 6.47926e-13 9.74824 -22.7702 1.27987 10.9054 -22.625 2.57337 12.049 -22.4476 3.8805 13.1789 -22.2378 -14.2339 -2.61085 -22.1218 -13.1414 -1.29691 -22.3201 -12.032 -1.97425e-13 -22.4878 -10.9054 1.27987 -22.625 -9.76187 2.5427 -22.7318 -8.60127 3.78849 -22.808 -7.42363 5.01724 -22.8538 -6.22896 6.22896 -22.869 -5.01724 7.42363 -22.8538 -3.78849 8.60127 -22.808 -2.5427 9.76187 -22.7318 -1.27987 10.9054 -22.625 3.4861e-13 12.032 -22.4878 1.29691 13.1414 -22.3201 2.61085 14.2339 -22.1218 -15.265 -1.31735 -21.9801 -14.2134 -5.48811e-13 -22.1642 -13.1414 1.29691 -22.3201 -12.049 2.57337 -22.4476 -10.9361 3.82938 -22.5467 -9.80276 5.06495 -22.6175 -8.64898 6.28007 -22.66 -7.47475 7.47475 -22.6742 -6.28007 8.64898 -22.66 -5.06495 9.80276 -22.6175 -3.82938 10.9361 -22.5467 -2.57337 12.049 -22.4476 -1.29691 13.1414 -22.3201 -5.32907e-15 14.2134 -22.1642 1.31735 15.265 -21.9801 -16.2722 -9.2637e-13 -21.8126 -15.265 1.31735 -21.9801 -14.2339 2.61085 -22.1218 -13.1789 3.8805 -22.2378 -12.1001 5.12629 -22.328 -10.9974 6.34823 -22.3924 -9.87091 7.54631 -22.4311 -8.72054 8.72054 -22.444 -7.54631 9.87091 -22.4311 -6.34823 10.9974 -22.3924 -5.12629 12.1001 -22.328 -3.8805 13.1789 -22.2378 -2.61085 14.2339 -22.1218 -1.31735 15.265 -21.9801 -4.06786e-13 16.2722 -21.8126 1.07085e-12 -15.4569 -27.3851 1.24123 -14.49 -27.6216 2.46136 -13.502 -27.8217 3.66039 -12.4929 -27.9855 4.83831 -11.4627 -28.1129 5.99514 -10.4114 -28.2038 7.13085 -9.33898 -28.2584 8.24547 -8.24547 -28.2766 9.33898 -7.13085 -28.2584 10.4114 -5.99514 -28.2038 11.4627 -4.83831 -28.1129 12.4929 -3.66039 -27.9855 13.502 -2.46136 -27.8217 14.49 -1.24123 -27.6216 15.4569 2.14866e-12 -27.3851 -1.24123 -14.49 -27.6216 9.56971e-13 -13.4839 -27.8505 1.22314 -12.4597 -28.0441 2.4282 -11.4175 -28.2026 3.61517 -10.3571 -28.3258 4.78405 -9.27869 -28.4138 5.93484 -8.18216 -28.4666 7.06755 -7.06755 -28.4842 8.18216 -5.93484 -28.4666 9.27869 -4.78405 -28.4138 10.3571 -3.61517 -28.3258 11.4175 -2.4282 -28.2026 12.4597 -1.22314 -28.0441 13.4839 1.69305e-12 -27.8505 14.49 1.24123 -27.6216 -2.46136 -13.502 -27.8217 -1.22314 -12.4597 -28.0441 8.94289e-13 -11.4024 -28.2323 1.20807 -10.33 -28.3862 2.40107 -9.24251 -28.506 3.57899 -8.13996 -28.5915 4.74184 -7.02233 -28.6428 5.88962 -5.88962 -28.6599 7.02233 -4.74184 -28.6428 8.13996 -3.57899 -28.5915 9.24251 -2.40107 -28.506 10.33 -1.20807 -28.3862 11.4024 1.34087e-12 -28.2323 12.4597 1.22314 -28.0441 13.502 2.46136 -27.8217 -3.66039 -12.4929 -27.9855 -2.4282 -11.4175 -28.2026 -1.20807 -10.33 -28.3862 8.80108e-13 -9.23045 -28.5365 1.19601 -8.11885 -28.6534 2.37997 -6.99519 -28.7368 3.55186 -5.85947 -28.7869 4.7117 -4.7117 -28.8036 5.85947 -3.55186 -28.7869 6.99519 -2.37997 -28.7368 8.11885 -1.19601 -28.6534 9.23045 1.09835e-12 -28.5365 10.33 1.20807 -28.3862 11.4175 2.4282 -28.2026 12.4929 3.66039 -27.9855 -4.83831 -11.4627 -28.1129 -3.61517 -10.3571 -28.3258 -2.40107 -9.24251 -28.506 -1.19601 -8.11885 -28.6534 9.12936e-13 -6.98615 -28.768 1.18697 -5.8444 -28.8499 2.36489 -4.69361 -28.899 3.53377 -3.53377 -28.9154 4.69361 -2.36489 -28.899 5.8444 -1.18697 -28.8499 6.98615 9.56829e-13 -28.768 8.11885 1.19601 -28.6534 9.24251 2.40107 -28.506 10.3571 3.61517 -28.3258 11.4627 4.83831 -28.1129 -5.99514 -10.4114 -28.2038 -4.78405 -9.27869 -28.4138 -3.57899 -8.13996 -28.5915 -2.37997 -6.99519 -28.7368 -1.18697 -5.8444 -28.8499 9.93247e-13 -4.68758 -28.9307 1.18094 -3.52473 -28.9791 2.35585 -2.35585 -28.9953 3.52473 -1.18094 -28.9791 4.68758 9.19275e-13 -28.9307 5.8444 1.18697 -28.8499 6.99519 2.37997 -28.7368 8.13996 3.57899 -28.5915 9.27869 4.78405 -28.4138 10.4114 5.99514 -28.2038 -7.13085 -9.33898 -28.2584 -5.93484 -8.18216 -28.4666 -4.74184 -7.02233 -28.6428 -3.55186 -5.85947 -28.7869 -2.36489 -4.69361 -28.899 -1.18094 -3.52473 -28.9791 1.11912e-12 -2.35283 -29.0272 1.17792 -1.17792 -29.0432 2.35283 9.83304e-13 -29.0272 3.52473 1.18094 -28.9791 4.69361 2.36489 -28.899 5.85947 3.55186 -28.7869 7.02233 4.74184 -28.6428 8.18216 5.93484 -28.4666 9.33898 7.13085 -28.2584 -8.24547 -8.24547 -28.2766 -7.06755 -7.06755 -28.4842 -5.88962 -5.88962 -28.6599 -4.7117 -4.7117 -28.8036 -3.53377 -3.53377 -28.9154 -2.35585 -2.35585 -28.9953 -1.17792 -1.17792 -29.0432 1.29061e-12 1.15504e-12 -29.0591 1.17792 1.17792 -29.0432 2.35585 2.35585 -28.9953 3.53377 3.53377 -28.9154 4.7117 4.7117 -28.8036 5.88962 5.88962 -28.6599 7.06755 7.06755 -28.4842 8.24547 8.24547 -28.2766 -9.33898 -7.13085 -28.2584 -8.18216 -5.93484 -28.4666 -7.02233 -4.74184 -28.6428 -5.85947 -3.55186 -28.7869 -4.69361 -2.36489 -28.899 -3.52473 -1.18094 -28.9791 -2.35283 9.56472e-13 -29.0272 -1.17792 1.17792 -29.0432 1.11466e-12 2.35283 -29.0272 1.18094 3.52473 -28.9791 2.36489 4.69361 -28.899 3.55186 5.85947 -28.7869 4.74184 7.02233 -28.6428 5.93484 8.18216 -28.4666 7.13085 9.33898 -28.2584 -10.4114 -5.99514 -28.2038 -9.27869 -4.78405 -28.4138 -8.13996 -3.57899 -28.5915 -6.99519 -2.37997 -28.7368 -5.8444 -1.18697 -28.8499 -4.68758 8.14617e-13 -28.9307 -3.52473 1.18094 -28.9791 -2.35585 2.35585 -28.9953 -1.18094 3.52473 -28.9791 9.34267e-13 4.68758 -28.9307 1.18697 5.8444 -28.8499 2.37997 6.99519 -28.7368 3.57899 8.13996 -28.5915 4.78405 9.27869 -28.4138 5.99514 10.4114 -28.2038 -11.4627 -4.83831 -28.1129 -10.3571 -3.61517 -28.3258 -9.24251 -2.40107 -28.506 -8.11885 -1.19601 -28.6534 -6.98615 7.20489e-13 -28.768 -5.8444 1.18697 -28.8499 -4.69361 2.36489 -28.899 -3.53377 3.53377 -28.9154 -2.36489 4.69361 -28.899 -1.18697 5.8444 -28.8499 7.50372e-13 6.98615 -28.768 1.19601 8.11885 -28.6534 2.40107 9.24251 -28.506 3.61517 10.3571 -28.3258 4.83831 11.4627 -28.1129 -12.4929 -3.66039 -27.9855 -11.4175 -2.4282 -28.2026 -10.33 -1.20807 -28.3862 -9.23045 6.79387e-13 -28.5365 -8.11885 1.19601 -28.6534 -6.99519 2.37997 -28.7368 -5.85947 3.55186 -28.7869 -4.7117 4.7117 -28.8036 -3.55186 5.85947 -28.7869 -2.37997 6.99519 -28.7368 -1.19601 8.11885 -28.6534 5.66006e-13 9.23045 -28.5365 1.20807 10.33 -28.3862 2.4282 11.4175 -28.2026 3.66039 12.4929 -27.9855 -13.502 -2.46136 -27.8217 -12.4597 -1.22314 -28.0441 -11.4024 6.84929e-13 -28.2323 -10.33 1.20807 -28.3862 -9.24251 2.40107 -28.506 -8.13996 3.57899 -28.5915 -7.02233 4.74184 -28.6428 -5.88962 5.88962 -28.6599 -4.74184 7.02233 -28.6428 -3.57899 8.13996 -28.5915 -2.40107 9.24251 -28.506 -1.20807 10.33 -28.3862 3.77365e-13 11.4024 -28.2323 1.22314 12.4597 -28.0441 2.46136 13.502 -27.8217 -14.49 -1.24123 -27.6216 -13.4839 7.48376e-13 -27.8505 -12.4597 1.22314 -28.0441 -11.4175 2.4282 -28.2026 -10.3571 3.61517 -28.3258 -9.27869 4.78405 -28.4138 -8.18216 5.93484 -28.4666 -7.06755 7.06755 -28.4842 -5.93484 8.18216 -28.4666 -4.78405 9.27869 -28.4138 -3.61517 10.3571 -28.3258 -2.4282 11.4175 -28.2026 -1.22314 12.4597 -28.0441 1.93845e-13 13.4839 -27.8505 1.24123 14.49 -27.6216 -15.4569 8.54178e-13 -27.3851 -14.49 1.24123 -27.6216 -13.502 2.46136 -27.8217 -12.4929 3.66039 -27.9855 -11.4627 4.83831 -28.1129 -10.4114 5.99514 -28.2038 -9.33898 7.13085 -28.2584 -8.24547 8.24547 -28.2766 -7.13085 9.33898 -28.2584 -5.99514 10.4114 -28.2038 -4.83831 11.4627 -28.1129 -3.66039 12.4929 -27.9855 -2.46136 13.502 -27.8217 -1.24123 14.49 -27.6216 8.8124e-15 15.4569 -27.3851 1.23973e-12 -14.6136 -32.003 1.16573 -13.6916 -32.3187 2.31271 -12.751 -32.5858 3.44094 -11.7915 -32.8044 4.55041 -10.8134 -32.9744 5.64112 -9.81642 -33.0958 6.71308 -8.80073 -33.1687 7.76628 -7.76628 -33.193 8.80073 -6.71308 -33.1687 9.81642 -5.64112 -33.0958 10.8134 -4.55041 -32.9744 11.7915 -3.44094 -32.8044 12.751 -2.31271 -32.5858 13.6916 -1.16573 -32.3187 14.6136 2.30965e-12 -32.003 -1.16573 -13.6916 -32.3187 1.06112e-12 -12.7349 -32.6315 1.14966 -11.7621 -32.8963 2.28324 -10.7732 -33.1129 3.40075 -9.76819 -33.2813 4.50218 -8.74714 -33.4017 5.58753 -7.71001 -33.4739 6.65681 -6.65681 -33.4979 7.71001 -5.58753 -33.4739 8.74714 -4.50218 -33.4017 9.76819 -3.40075 -33.2813 10.7732 -2.28324 -33.1129 11.7621 -1.14966 -32.8963 12.7349 1.79744e-12 -32.6315 13.6916 1.16573 -32.3187 -2.31271 -12.751 -32.5858 -1.14966 -11.7621 -32.8963 9.42525e-13 -10.7598 -33.1589 1.13626 -9.74408 -33.3739 2.25913 -8.71499 -33.541 3.3686 -7.6725 -33.6604 4.46467 -6.61662 -33.7321 5.54734 -5.54734 -33.7559 6.61662 -4.46467 -33.7321 7.6725 -3.3686 -33.6604 8.71499 -2.25913 -33.541 9.74408 -1.13626 -33.3739 10.7598 1.39029e-12 -33.1589 11.7621 1.14966 -32.8963 12.751 2.31271 -32.5858 -3.44094 -11.7915 -32.8044 -2.28324 -10.7732 -33.1129 -1.13626 -9.74408 -33.3739 8.81765e-13 -8.70427 -33.5874 1.12554 -7.65375 -33.7535 2.24037 -6.59251 -33.8721 3.34448 -5.52055 -33.9433 4.43787 -4.43787 -33.9671 5.52055 -3.34448 -33.9433 6.59251 -2.24037 -33.8721 7.65375 -1.12554 -33.7535 8.70427 1.09431e-12 -33.5874 9.74408 1.13626 -33.3739 10.7732 2.28324 -33.1129 11.7915 3.44094 -32.8044 -4.55041 -10.8134 -32.9744 -3.40075 -9.76819 -33.2813 -2.25913 -8.71499 -33.541 -1.12554 -7.65375 -33.7535 8.80812e-13 -6.58447 -33.9188 1.11751 -5.50715 -34.0368 2.22697 -4.4218 -34.1077 3.32841 -3.32841 -34.1313 4.4218 -2.22697 -34.1077 5.50715 -1.11751 -34.0368 6.58447 9.06916e-13 -33.9188 7.65375 1.12554 -33.7535 8.71499 2.25913 -33.541 9.76819 3.40075 -33.2813 10.8134 4.55041 -32.9744 -5.64112 -9.81642 -33.0958 -4.50218 -8.74714 -33.4017 -3.3686 -7.6725 -33.6604 -2.24037 -6.59251 -33.8721 -1.11751 -5.50715 -34.0368 9.39817e-13 -4.41644 -34.1544 1.11215 -3.32037 -34.225 2.21894 -2.21894 -34.2485 3.32037 -1.11215 -34.225 4.41644 8.28048e-13 -34.1544 5.50715 1.11751 -34.0368 6.59251 2.24037 -33.8721 7.6725 3.3686 -33.6604 8.74714 4.50218 -33.4017 9.81642 5.64112 -33.0958 -6.71308 -8.80073 -33.1687 -5.58753 -7.71001 -33.4739 -4.46467 -6.61662 -33.7321 -3.34448 -5.52055 -33.9433 -2.22697 -4.4218 -34.1077 -1.11215 -3.32037 -34.225 1.06067e-12 -2.21626 -34.2954 1.10947 -1.10947 -34.3189 2.21626 8.53868e-13 -34.2954 3.32037 1.11215 -34.225 4.4218 2.22697 -34.1077 5.52055 3.34448 -33.9433 6.61662 4.46467 -33.7321 7.71001 5.58753 -33.4739 8.80073 6.71308 -33.1687 -7.76628 -7.76628 -33.193 -6.65681 -6.65681 -33.4979 -5.54734 -5.54734 -33.7559 -4.43787 -4.43787 -33.9671 -3.32841 -3.32841 -34.1313 -2.21894 -2.21894 -34.2485 -1.10947 -1.10947 -34.3189 1.24177e-12 9.92955e-13 -34.3424 1.10947 1.10947 -34.3189 2.21894 2.21894 -34.2485 3.32841 3.32841 -34.1313 4.43787 4.43787 -33.9671 5.54734 5.54734 -33.7559 6.65681 6.65681 -33.4979 7.76628 7.76628 -33.193 -8.80073 -6.71308 -33.1687 -7.71001 -5.58753 -33.4739 -6.61662 -4.46467 -33.7321 -5.52055 -3.34448 -33.9433 -4.4218 -2.22697 -34.1077 -3.32037 -1.11215 -34.225 -2.21626 8.44883e-13 -34.2954 -1.10947 1.10947 -34.3189 9.93527e-13 2.21626 -34.2954 1.11215 3.32037 -34.225 2.22697 4.4218 -34.1077 3.34448 5.52055 -33.9433 4.46467 6.61662 -33.7321 5.58753 7.71001 -33.4739 6.71308 8.80073 -33.1687 -9.81642 -5.64112 -33.0958 -8.74714 -4.50218 -33.4017 -7.6725 -3.3686 -33.6604 -6.59251 -2.24037 -33.8721 -5.50715 -1.11751 -34.0368 -4.41644 7.90278e-13 -34.1544 -3.32037 1.11215 -34.225 -2.21894 2.21894 -34.2485 -1.11215 3.32037 -34.225 7.89072e-13 4.41644 -34.1544 1.11751 5.50715 -34.0368 2.24037 6.59251 -33.8721 3.3686 7.6725 -33.6604 4.50218 8.74714 -33.4017 5.64112 9.81642 -33.0958 -10.8134 -4.55041 -32.9744 -9.76819 -3.40075 -33.2813 -8.71499 -2.25913 -33.541 -7.65375 -1.12554 -33.7535 -6.58447 8.24639e-13 -33.9188 -5.50715 1.11751 -34.0368 -4.4218 2.22697 -34.1077 -3.32841 3.32841 -34.1313 -2.22697 4.4218 -34.1077 -1.11751 5.50715 -34.0368 6.27165e-13 6.58447 -33.9188 1.12554 7.65375 -33.7535 2.25913 8.71499 -33.541 3.40075 9.76819 -33.2813 4.55041 10.8134 -32.9744 -11.7915 -3.44094 -32.8044 -10.7732 -2.28324 -33.1129 -9.74408 -1.13626 -33.3739 -8.70427 9.4829e-13 -33.5874 -7.65375 1.12554 -33.7535 -6.59251 2.24037 -33.8721 -5.52055 3.34448 -33.9433 -4.43787 4.43787 -33.9671 -3.34448 5.52055 -33.9433 -2.24037 6.59251 -33.8721 -1.12554 7.65375 -33.7535 5.05984e-13 8.70427 -33.5874 1.13626 9.74408 -33.3739 2.28324 10.7732 -33.1129 3.44094 11.7915 -32.8044 -12.751 -2.31271 -32.5858 -11.7621 -1.14966 -32.8963 -10.7598 1.15809e-12 -33.1589 -9.74408 1.13626 -33.3739 -8.71499 2.25913 -33.541 -7.6725 3.3686 -33.6604 -6.61662 4.46467 -33.7321 -5.54734 5.54734 -33.7559 -4.46467 6.61662 -33.7321 -3.3686 7.6725 -33.6604 -2.25913 8.71499 -33.541 -1.13626 9.74408 -33.3739 4.22828e-13 10.7598 -33.1589 1.14966 11.7621 -32.8963 2.31271 12.751 -32.5858 -13.6916 -1.16573 -32.3187 -12.7349 1.45844e-12 -32.6315 -11.7621 1.14966 -32.8963 -10.7732 2.28324 -33.1129 -9.76819 3.40075 -33.2813 -8.74714 4.50218 -33.4017 -7.71001 5.58753 -33.4739 -6.65681 6.65681 -33.4979 -5.58753 7.71001 -33.4739 -4.50218 8.74714 -33.4017 -3.40075 9.76819 -33.2813 -2.28324 10.7732 -33.1129 -1.14966 11.7621 -32.8963 3.79197e-13 12.7349 -32.6315 1.16573 13.6916 -32.3187 -14.6136 1.84441e-12 -32.003 -13.6916 1.16573 -32.3187 -12.751 2.31271 -32.5858 -11.7915 3.44094 -32.8044 -10.8134 4.55041 -32.9744 -9.81642 5.64112 -33.0958 -8.80073 6.71308 -33.1687 -7.76628 7.76628 -33.193 -6.71308 8.80073 -33.1687 -5.64112 9.81642 -33.0958 -4.55041 10.8134 -32.9744 -3.44094 11.7915 -32.8044 -2.31271 12.751 -32.5858 -1.16573 13.6916 -32.3187 3.74034e-13 14.6136 -32.003 1.03351e-12 -13.7256 -36.6208 1.09083 -12.8556 -37.0157 2.16467 -11.9686 -37.3499 3.22152 -11.0647 -37.6233 4.26138 -10.1438 -37.8359 5.28425 -9.20584 -37.9878 6.29013 -8.25092 -38.079 7.27902 -7.27902 -38.1093 8.25092 -6.29013 -38.079 9.20584 -5.28425 -37.9878 10.1438 -4.26138 -37.8359 11.0647 -3.22152 -37.6233 11.9686 -2.16467 -37.3499 12.8556 -1.09083 -37.0157 13.7256 1.88294e-12 -36.6208 -1.09083 -12.8556 -37.0157 8.87951e-13 -11.9541 -37.4126 1.07627 -11.038 -37.7484 2.13797 -10.1074 -38.0232 3.18511 -9.16215 -38.2369 4.21769 -8.20238 -38.3895 5.23571 -7.22805 -38.4811 6.23916 -6.23916 -38.