<?xml version="1.0"?> 
<VTKFile type="StructuredGrid" version="0.1"> 
<StructuredGrid WholeExtent="0 29 0 29 0 29"> 
<Piece Extent="0 29 0 29 0 29"> 
<PointData>
<DataArray type="Float32" Name="efield" format="ascii" NumberOfComponents="3"> 
-20.0241 2.29967 4.81232 -20.376 1.88265 3.7888 -20.728 1.49823 2.93604 -21.08 1.1397 2.25106 -21.4319 0.801756 1.7317 -21.7839 0.480163 1.37661 -22.1358 0.171473 1.18528 -22.4878 -0.127131 1.15798 -22.8398 -0.417983 1.29588 -23.1917 -0.703026 1.601 -23.5437 -0.983897 2.07628 -23.8956 -1.26198 2.72568 -24.2476 -1.53845 3.55419 -24.5996 -1.81433 4.56799 -24.9515 -2.09049 5.77452 -26.3535 -2.01973 6.92634 -28.8054 -1.62435 7.49811 -31.2574 -1.26152 7.5423 -33.7093 -0.933261 7.02199 -36.1613 -0.641367 5.8945 -38.6132 -0.387422 4.11043 -41.0652 -0.172835 1.61255 -43.5171 0.00113633 -1.66562 -45.9691 0.133366 -5.80151 -48.421 0.222845 -10.8856 -50.873 0.268661 -17.0243 -53.3249 0.269994 -24.343 -55.7769 0.226101 -32.9905 -58.2288 0.136308 -43.1447 -60.6808 -1.07244e-13 -55.0196 -19.3155 2.81348 5.04996 -19.6767 2.49556 3.96961 -20.0355 2.19963 3.06769 -20.3923 1.92113 2.3408 -20.7473 1.65638 1.7864 -21.1006 1.40239 1.40285 -21.4525 1.1567 1.18939 -21.803 0.91728 1.14612 -22.1523 0.682421 1.27408 -22.5004 0.450695 1.57524 -22.8475 0.220888 2.05256 -23.1935 -0.00803664 2.71009 -23.5386 -0.236966 3.55298 -23.8827 -0.466664 4.58767 -24.226 -0.697796 5.82196 -25.644 -0.535972 7.0036 -28.134 -0.0075942 7.60296 -30.6195 0.482288 7.67659 -33.1004 0.932208 7.18789 -35.577 1.34088 6.09438 -38.0492 1.70716 4.34667 -40.5173 2.03005 1.88732 -42.9811 2.30867 -1.3507 -45.4408 2.54223 -5.4458 -47.8965 2.73003 -10.4901 -50.3481 2.87145 -16.5923 -52.7957 2.96595 -23.8813 -55.2393 3.01304 -32.5111 -57.6791 3.01227 -42.6669 -60.115 2.96327 -54.5728 -18.659 3.37929 5.27063 -19.0219 3.14269 4.13728 -19.3812 2.92064 3.18956 -19.7371 2.70997 2.42361 -20.0901 2.50808 1.83656 -20.4403 2.31284 1.42646 -20.7881 2.12246 1.1923 -21.1335 1.93546 1.13401 -21.4768 1.7506 1.2525 -21.818 1.56681 1.54968 -22.1574 1.3832 2.0285 -22.4949 1.19898 2.69308 -22.8306 1.01348 3.54873 -23.1647 0.826146 4.60209 -23.4972 0.636463 5.8613 -24.9213 0.885603 7.07037 -27.4315 1.54402 7.69611 -29.933 2.15935 7.79838 -32.4258 2.73059 7.34101 -34.9102 3.25685 6.28182 -37.3862 3.73737 4.57161 -39.854 4.17147 2.15289 -42.3137 4.55858 -1.04167 -44.7652 4.8982 -5.09119 -47.2089 5.18991 -10.089 -49.6446 5.43333 -16.1459 -52.0724 5.62814 -23.3938 -54.4925 5.77409 -31.9913 -56.9049 5.87093 -42.1299 -59.3096 5.9185 -54.0435 -18.038 3.98068 5.47432 -18.3978 3.81207 4.29188 -18.7531 3.6527 3.30173 -19.1043 3.50029 2.49963 -19.4517 3.35299 1.88235 -19.7956 3.20926 1.44764 -20.1363 3.06781 1.19426 -20.474 2.92754 1.12196 -20.8088 2.78753 1.23151 -21.1409 2.647 1.52475 -21.4703 2.50528 2.00463 -21.7974 2.36179 2.6753 -22.122 2.21603 3.5422 -22.4444 2.06757 4.61218 -22.7645 1.91605 5.89365 -24.1862 2.24874 7.12773 -26.7015 3.03373 7.77831 -29.204 3.7722 7.90794 -31.6941 4.46348 7.48093 -34.1718 5.10701 6.45551 -36.6374 5.70233 4.78276 -39.0909 6.24904 2.40529 -41.5325 6.74683 -0.744343 -43.9623 7.19544 -4.74575 -46.3804 7.59465 -9.69325 -48.7868 7.94432 -15.6992 -51.1817 8.24431 -22.8982 -53.5651 8.49456 -31.4528 -55.9371 8.69502 -41.5605 -58.2978 8.84568 -53.464 -17.4409 4.60596 5.66104 -17.7942 4.49512 4.43345 -18.1425 4.38961 3.4043 -18.4862 4.28781 2.56898 -18.8255 4.18838 1.9239 -19.1608 4.09019 1.46656 -19.4923 3.99229 1.19547 -19.8202 3.89388 1.11021 -20.1447 3.79429 1.2114 -20.4659 3.69294 1.50082 -20.784 3.58932 1.98139 -21.099 3.48302 2.6573 -21.4112 3.37366 3.53408 -21.7205 3.26093 4.61876 -22.0271 3.14455 5.92001 -23.4393 3.55708 7.17671 -25.9465 4.46489 7.85035 -28.4374 5.32365 8.00569 -30.9121 6.13299 7.60755 -33.3709 6.89261 6.61462 -35.8138 7.60229 4.97834 -38.241 8.26186 2.64156 -40.6527 8.87121 -0.463185 -43.0489 9.43028 -4.41577 -45.4299 9.93904 -9.31125 -47.7956 10.3975 -15.2633 -50.1462 10.8057 -22.4088 -52.4818 11.1638 -30.9137 -54.8024 11.4718 -40.981 -57.1082 11.7299 -52.8613 -16.8592 5.24663 5.83078 -17.2037 5.18552 4.56201 -17.5429 5.12685 3.49733 -17.877 5.06943 2.63173 -18.2064 5.01231 1.96134 -18.5313 4.95465 1.48337 -18.852 4.89576 1.19611 -19.1687 4.83505 1.09897 -19.4815 4.77204 1.19244 -19.7905 4.70629 1.47821 -20.096 4.63744 1.95919 -20.398 4.56517 2.63957 -20.6967 4.48923 3.52497 -20.992 4.40938 4.62258 -21.2842 4.32544 5.94128 -22.6807 4.81418 7.21824 -25.1688 5.84084 7.91302 -27.637 6.8167 8.09214 -30.0856 7.74162 7.72098 -32.5146 8.61552 6.75871 -34.9244 9.43835 5.15718 -37.315 10.2101 2.85954 -39.6866 10.9309 -0.201556 -42.0393 11.6008 -4.10613 -44.3732 12.22 -8.94975 -46.6885 12.7885 -14.8472 -48.9853 13.3066 -21.9372 -51.2636 13.7745 -30.3888 -53.5236 14.1923 -40.4097 -55.7653 14.5605 -52.2579 -16.2866 5.89638 5.98355 -16.6207 5.87857 4.67763 -16.9491 5.86102 3.58088 -17.2722 5.84287 2.68799 -17.5903 5.82342 1.99477 -17.9036 5.80208 1.49819 -18.2123 5.77833 1.19632 -18.5166 5.75175 1.08841 -18.8167 5.72197 1.17484 -19.1126 5.6887 1.45719 -19.4046 5.65167 1.93835 -19.6927 5.61066 2.62252 -19.9771 5.56548 3.51539 -20.2578 5.51597 4.62427 -20.5348 5.46199 5.95824 -21.9105 6.02347 7.25318 -24.3698 7.16491 7.96706 -26.8059 8.25446 8.16786 -29.2189 9.29214 7.82148 -31.6092 10.278 6.88761 -33.9767 11.2123 5.31853 -36.3218 12.095 3.05771 -38.6446 12.9263 0.038033 -40.9452 13.7066 -3.82058 -43.2238 14.436 -8.61406 -45.4804 15.1148 -14.458 -47.7153 15.7433 -21.4928 -49.9284 16.3218 -29.89 -52.12 16.8506 -39.8617 -54.2901 17.3301 -51.6723 -15.7183 6.55047 6.11935 -16.0407 6.57074 4.78031 -16.3572 6.58961 3.65502 -16.6683 6.60647 2.73782 -16.974 6.62082 2.02428 -17.2747 6.63221 1.51112 -17.5705 6.64029 1.19623 -17.8616 6.64475 1.07869 -18.1482 6.64532 1.15877 -18.4303 6.64181 1.43799 -18.7081 6.63402 1.91916 -18.9817 6.62179 2.60652 -19.2511 6.60501 3.5058 -19.5165 6.58357 4.62441 -19.778 6.55737 5.97162 -21.1284 7.18825 7.28231 -23.5505 8.44038 8.01319 -25.9463 9.64007 8.23342 -28.3157 10.7875 7.90942 -30.6592 11.8828 7.00135 -32.9769 12.9262 5.46195 -35.2688 13.918 3.23504 -37.5354 14.8586 0.253745 -39.7766 15.7481 -3.56197 -41.9926 16.587 -8.30826 -44.1836 17.3756 -14.1014 -46.3497 18.1142 -21.0831 -48.4911 18.8032 -29.4272 -50.6078 19.4431 -39.3493 -52.7001 20.0342 -51.1198 -15.1507 7.20528 6.23817 -15.4605 7.25934 4.8701 -15.7642 7.31075 3.71978 -16.0623 7.35906 2.78129 -16.3549 7.40391 2.04994 -16.6422 7.445 1.52225 -16.9244 7.48207 1.19594 -17.2016 7.51491 1.06994 -17.474 7.54333 1.14441 -17.7417 7.5672 1.42079 -18.0047 7.58638 1.90187 -18.2633 7.60078 2.59188 -18.5174 7.61032 3.49659 -18.7672 7.61494 4.6235 -19.0128 7.61459 5.98201 -20.3339 8.31169 7.3063 -22.7116 9.67045 8.05205 -25.0598 10.9766 8.28938 -27.3787 12.2306 7.98519 -29.6685 13.4325 7.10009 -31.9295 14.5827 5.58724 -34.1618 15.6815 3.39084 -36.3657 16.7294 0.444258 -38.5412 17.7267 -3.33243 -40.6887 18.6737 -8.03552 -42.8082 19.571 -13.7818 -44.8999 20.4188 -20.714 -46.964 21.2178 -29.008 -49.0005 21.9682 -38.8825 -51.0098 22.6705 -50.6129 -14.5811 7.85805 6.34002 -14.8774 7.94236 4.94701 -15.1676 8.02305 3.77522 -15.452 8.09981 2.81846 -15.7308 8.17239 2.07182 -16.004 8.24059 1.53166 -16.272 8.30422 1.19554 -16.5348 8.36314 1.06225 -16.7925 8.41724 1.13187 -17.0452 8.46642 1.40577 -17.2931 8.51061 1.88669 -17.5363 8.54976 2.57886 -17.7747 8.58381 3.48809 -18.0086 8.61274 4.62195 -18.2379 8.63652 5.98995 -19.5265 9.39685 7.32575 -21.8532 10.8582 8.08423 -24.1475 12.2673 8.33628 -26.4096 13.6244 8.0492 -28.6398 14.93 7.18405 -30.8383 16.1843 5.69436 -33.0052 17.3879 3.52469 -35.1409 18.541 0.608644 -37.2455 19.6441 -3.13354 -39.3192 20.6977 -7.79826 -41.3623 21.7022 -13.5027 -43.3748 22.658 -20.3904 -45.357 23.5656 -28.6388 -47.309 24.4255 -38.4694 -49.231 25.2382 -50.1619 -14.0073 8.50665 6.42489 -14.2895 8.61826 5.01108 -14.5655 8.72551 3.82136 -14.8355 8.82819 2.84936 -15.0998 8.92615 2.08998 -15.3585 9.01923 1.53941 -15.6117 9.10734 1.1951 -15.8595 9.19038 1.05572 -16.1021 9.26829 1.12127 -16.3395 9.34101 1.39305 -16.5718 9.40851 1.87379 -16.7992 9.47076 2.56769 -17.0216 9.52774 3.48059 -17.2393 9.57945 4.62012 -17.4521 9.6259 5.99589 -18.705 10.4466 7.34118 -20.9751 12.0066 8.11025 -23.2099 13.5149 8.37458 -25.4098 14.972 8.10186 -27.5751 16.3782 7.25349 -29.7059 17.7339 5.78336 -31.8025 19.0396 3.63633 -33.8653 20.2957 0.746273 -35.8943 21.5026 -2.96647 -37.8899 22.6609 -7.5983 -39.8522 23.7708 -13.2667 -41.7815 24.833 -20.1159 -43.6779 25.848 -28.3245 -45.5418 26.816 -38.1164 -47.3732 27.7378 -49.7748 -13.4278 9.14949 6.49279 -13.6951 9.28593 5.06231 -13.9562 9.41745 3.85824 -14.2113 9.54391 2.87403 -14.4606 9.66523 2.10445 -14.7041 9.78133 1.54556 -14.942 9.89213 1.19467 -15.1744 9.99761 1.05041 -15.4013 10.0977 1.11269 -15.623 10.1925 1.38275 -15.8394 10.2818 1.8633 -16.0506 10.3657 2.55854 -16.2568 10.4443 3.47432 -16.4579 10.5175 4.61831 -16.6541 10.5853 6.00021 -17.8686 11.4637 7.35301 -20.0767 13.1184 8.13054 -22.247 14.7224 8.4047 -24.3799 16.2761 8.14351 -26.4754 17.7798 7.30866 -28.5341 19.2341 5.85435 -30.5561 20.6394 3.72568 -32.5417 21.996 0.856725 -34.4912 23.3045 -2.83202 -36.4048 24.5654 -7.43696 -38.2828 25.779 -13.0758 -40.1254 26.9458 -19.8932 -41.9329 28.0664 -28.069 -43.7055 29.1411 -37.8285 -45.4434 30.1706 -49.4581 -12.8413 9.78538 6.54371 -13.093 9.94458 5.10072 -13.3386 10.0984 3.88588 -13.5781 10.2469 2.89251 -13.8117 10.3899 2.11528 -14.0395 10.5274 1.55013 -14.2615 10.6593 1.19432 -14.478 10.7858 1.04639 -14.6889 10.9068 1.10619 -14.8944 11.0222 1.37496 -15.0945 11.1321 1.85535 -15.2892 11.2366 2.55156 -15.4787 11.3356 3.46946 -15.6631 11.4291 4.61675 -15.8423 11.5173 6.00319 -17.0159 12.4508 7.36159 -19.1573 14.1964 8.14544 -21.2585 15.8924 8.42699 -23.3198 17.5393 8.17447 -25.3415 19.1375 7.34982 -27.3239 20.6875 5.90745 -29.2673 22.1896 3.79267 -31.1721 23.6444 0.939737 -33.0385 25.0521 -2.73076 -34.8668 26.4134 -7.31521 -36.6573 27.7286 -12.9314 -38.4102 28.9983 -19.7245 -40.126 30.2228 -27.8749 -41.8048 31.4026 -37.6094 -43.447 32.5382 -49.2165 -12.247 10.4135 6.57766 -12.4824 10.5937 5.12632 -12.7116 10.7683 3.9043 -12.9348 10.9371 2.90482 -13.1521 11.1004 2.12248 -13.3635 11.2579 1.55316 -13.5692 11.4098 1.19406 -13.7691 11.556 1.04368 -13.9635 11.6966 1.10183 -14.1523 11.8317 1.36972 -14.3356 11.9611 1.85 -14.5135 12.0851 2.54685 -14.686 12.2035 3.46615 -14.8532 12.3165 4.61562 -15.0152 12.4241 6.00505 -16.1454 13.4103 7.36717 -18.2157 15.2429 8.15523 -20.2436 17.0274 8.4417 -22.2293 18.7642 8.19497 -24.1732 20.4537 7.37714 -26.0756 22.0964 5.94277 -27.937 23.6927 3.83732 -29.7575 25.2429 0.99515 -31.5376 26.7476 -2.66306 -33.2776 28.2071 -7.2337 -34.9778 29.6219 -12.8347 -36.6386 30.9924 -19.6113 -38.2602 32.319 -27.7445 -39.8429 33.6022 -37.4619 -41.3872 34.8424 -49.0535 -11.6444 11.0332 6.59463 -11.8625 11.233 5.13912 -12.0746 11.4269 3.9135 -12.2807 11.6149 2.91097 -12.4808 11.7972 2.12607 -12.6752 11.9736 1.55467 -12.8638 12.1443 1.19393 -13.0466 12.3093 1.04232 -13.2238 12.4686 1.09965 -13.3953 12.6223 1.3671 -13.5614 12.7704 1.84731 -13.7219 12.913 2.54447 -13.877 13.0501 3.46447 -14.0267 13.1817 4.61503 -14.171 13.308 6.00595 -15.2556 14.3445 7.36992 -17.2506 16.2603 8.16008 -19.2011 18.1296 8.44901 -21.1074 19.9529 8.20518 -22.9699 21.7306 7.39077 -24.7889 23.463 5.96041 -26.5649 25.1506 3.85964 -28.2982 26.7937 1.02288 -29.9892 28.3928 -2.62917 -31.6381 29.9482 -7.19285 -33.2455 31.4604 -12.7861 -34.8116 32.9298 -19.5544 -36.3369 34.3567 -27.679 -37.8216 35.7415 -37.3878 -39.2662 37.0847 -48.9715 -11.0332 11.6444 6.59463 -11.233 11.8625 5.13912 -11.4269 12.0746 3.9135 -11.6149 12.2807 2.91097 -11.7972 12.4808 2.12607 -11.9736 12.6752 1.55467 -12.1443 12.8638 1.19393 -12.3093 13.0466 1.04232 -12.4686 13.2238 1.09965 -12.6223 13.3953 1.3671 -12.7704 13.5614 1.84731 -12.913 13.7219 2.54447 -13.0501 13.877 3.46447 -13.1817 14.0267 4.61503 -13.308 14.171 6.00595 -14.3445 15.2556 7.36992 -16.2603 17.2506 8.16008 -18.1296 19.2011 8.44901 -19.9529 21.1074 8.20518 -21.7306 22.9699 7.39077 -23.463 24.7889 5.96041 -25.1506 26.5649 3.85964 -26.7937 28.2982 1.02288 -28.3928 29.9892 -2.62917 -29.9482 31.6381 -7.19285 -31.4604 33.2455 -12.7861 -32.9298 34.8116 -19.5544 -34.3567 36.3369 -27.679 -35.7415 37.8216 -37.3878 -37.0847 39.2662 -48.9715 -10.4135 12.247 6.57766 -10.5937 12.4824 5.12632 -10.7683 12.7116 3.9043 -10.9371 12.9348 2.90482 -11.1004 13.1521 2.12248 -11.2579 13.3635 1.55316 -11.4098 13.5692 1.19406 -11.556 13.7691 1.04368 -11.6966 13.9635 1.10183 -11.8317 14.1523 1.36972 -11.9611 14.3356 1.85 -12.0851 14.5135 2.54685 -12.2035 14.686 3.46615 -12.3165 14.8532 4.61562 -12.4241 15.0152 6.00505 -13.4103 16.1454 7.36717 -15.2429 18.2157 8.15523 -17.0274 20.2436 8.4417 -18.7642 22.2293 8.19497 -20.4537 24.1732 7.37714 -22.0964 26.0756 5.94277 -23.6927 27.937 3.83732 -25.2429 29.7575 0.99515 -26.7476 31.5376 -2.66306 -28.2071 33.2776 -7.2337 -29.6219 34.9778 -12.8347 -30.9924 36.6386 -19.6113 -32.319 38.2602 -27.7445 -33.6022 39.8429 -37.4619 -34.8424 41.3872 -49.0535 -9.78538 12.8413 6.54371 -9.94458 13.093 5.10072 -10.0984 13.3386 3.88588 -10.2469 13.5781 2.89251 -10.3899 13.8117 2.11528 -10.5274 14.0395 1.55013 -10.6593 14.2615 1.19432 -10.7858 14.478 1.04639 -10.9068 14.6889 1.10619 -11.0222 14.8944 1.37496 -11.1321 15.0945 1.85535 -11.2366 15.2892 2.55156 -11.3356 15.4787 3.46946 -11.4291 15.6631 4.61675 -11.5173 15.8423 6.00319 -12.4508 17.0159 7.36159 -14.1964 19.1573 8.14544 -15.8924 21.2585 8.42699 -17.5393 23.3198 8.17447 -19.1375 25.3415 7.34982 -20.6875 27.3239 5.90745 -22.1896 29.2673 3.79267 -23.6444 31.1721 0.939737 -25.0521 33.0385 -2.73076 -26.4134 34.8668 -7.31521 -27.7286 36.6573 -12.9314 -28.9983 38.4102 -19.7245 -30.2228 40.126 -27.8749 -31.4026 41.8048 -37.6094 -32.5382 43.447 -49.2165 -9.14949 13.4278 6.49279 -9.28593 13.6951 5.06231 -9.41745 13.9562 3.85824 -9.54391 14.2113 2.87403 -9.66523 14.4606 2.10445 -9.78133 14.7041 1.54556 -9.89213 14.942 1.19467 -9.99761 15.1744 1.05041 -10.0977 15.4013 1.11269 -10.1925 15.623 1.38275 -10.2818 15.8394 1.8633 -10.3657 16.0506 2.55854 -10.4443 16.2568 3.47432 -10.5175 16.4579 4.61831 -10.5853 16.6541 6.00021 -11.4637 17.8686 7.35301 -13.1184 20.0767 8.13054 -14.7224 22.247 8.4047 -16.2761 24.3799 8.14351 -17.7798 26.4754 7.30866 -19.2341 28.5341 5.85435 -20.6394 30.5561 3.72568 -21.996 32.5417 0.856725 -23.3045 34.4912 -2.83202 -24.5654 36.4048 -7.43696 -25.779 38.2828 -13.0758 -26.9458 40.1254 -19.8932 -28.0664 41.9329 -28.069 -29.1411 43.7055 -37.8285 -30.1706 45.4434 -49.4581 -8.50665 14.0073 6.42489 -8.61826 14.2895 5.01108 -8.72551 14.5655 3.82136 -8.82819 14.8355 2.84936 -8.92615 15.0998 2.08998 -9.01923 15.3585 1.53941 -9.10734 15.6117 1.1951 -9.19038 15.8595 1.05572 -9.26829 16.1021 1.12127 -9.34101 16.3395 1.39305 -9.40851 16.5718 1.87379 -9.47076 16.7992 2.56769 -9.52774 17.0216 3.48059 -9.57945 17.2393 4.62012 -9.6259 17.4521 5.99589 -10.4466 18.705 7.34118 -12.0066 20.9751 8.11025 -13.5149 23.2099 8.37458 -14.972 25.4098 8.10186 -16.3782 27.5751 7.25349 -17.7339 29.7059 5.78336 -19.0396 31.8025 3.63633 -20.2957 33.8653 0.746273 -21.5026 35.8943 -2.96647 -22.6609 37.8899 -7.5983 -23.7708 39.8522 -13.2667 -24.833 41.7815 -20.1159 -25.848 43.6779 -28.3245 -26.816 45.5418 -38.1164 -27.7378 47.3732 -49.7748 -7.85805 14.5811 6.34002 -7.94236 14.8774 4.94701 -8.02305 15.1676 3.77522 -8.09981 15.452 2.81846 -8.17239 15.7308 2.07182 -8.24059 16.004 1.53166 -8.30422 16.272 1.19554 -8.36314 16.5348 1.06225 -8.41724 16.7925 1.13187 -8.46642 17.0452 1.40577 -8.51061 17.2931 1.88669 -8.54976 17.5363 2.57886 -8.58381 17.7747 3.48809 -8.61274 18.0086 4.62195 -8.63652 18.2379 5.98995 -9.39685 19.5265 7.32575 -10.8582 21.8532 8.08423 -12.2673 24.1475 8.33628 -13.6244 26.4096 8.0492 -14.93 28.6398 7.18405 -16.1843 30.8383 5.69436 -17.3879 33.0052 3.52469 -18.541 35.1409 0.608644 -19.6441 37.2455 -3.13354 -20.6977 39.3192 -7.79826 -21.7022 41.3623 -13.5027 -22.658 43.3748 -20.3904 -23.5656 45.357 -28.6388 -24.4255 47.309 -38.4694 -25.2382 49.231 -50.1619 -7.20528 15.1507 6.23817 -7.25934 15.4605 4.8701 -7.31075 15.7642 3.71978 -7.35906 16.0623 2.78129 -7.40391 16.3549 2.04994 -7.445 16.6422 1.52225 -7.48207 16.9244 1.19594 -7.51491 17.2016 1.06994 -7.54333 17.474 1.14441 -7.5672 17.7417 1.42079 -7.58638 18.0047 1.90187 -7.60078 18.2633 2.59188 -7.61032 18.5174 3.49659 -7.61494 18.7672 4.6235 -7.61459 19.0128 5.98201 -8.31169 20.3339 7.3063 -9.67045 22.7116 8.05205 -10.9766 25.0598 8.28938 -12.2306 27.3787 7.98519 -13.4325 29.6685 7.10009 -14.5827 31.9295 5.58724 -15.6815 34.1618 3.39084 -16.7294 36.3657 0.444258 -17.7267 38.5412 -3.33243 -18.6737 40.6887 -8.03552 -19.571 42.8082 -13.7818 -20.4188 44.8999 -20.714 -21.2178 46.964 -29.008 -21.9682 49.0005 -38.8825 -22.6705 51.0098 -50.6129 -6.55047 15.7183 6.11935 -6.57074 16.0407 4.78031 -6.58961 16.3572 3.65502 -6.60647 16.6683 2.73782 -6.62082 16.974 2.02428 -6.63221 17.2747 1.51112 -6.64029 17.5705 1.19623 -6.64475 17.8616 1.07869 -6.64532 18.1482 1.15877 -6.64181 18.4303 1.43799 -6.63402 18.7081 1.91916 -6.62179 18.9817 2.60652 -6.60501 19.2511 3.5058 -6.58357 19.5165 4.62441 -6.55737 19.778 5.97162 -7.18825 21.1284 7.28231 -8.44038 23.5505 8.01319 -9.64007 25.9463 8.23342 -10.7875 28.3157 7.90942 -11.8828 30.6592 7.00135 -12.9262 32.9769 5.46195 -13.918 35.2688 3.23504 -14.8586 37.5354 0.253745 -15.7481 39.7766 -3.56197 -16.587 41.9926 -8.30826 -17.3756 44.1836 -14.1014 -18.1142 46.3497 -21.0831 -18.8032 48.4911 -29.4272 -19.4431 50.6078 -39.3493 -20.0342 52.7001 -51.1198 -5.89638 16.2866 5.98355 -5.87857 16.6207 4.67763 -5.86102 16.9491 3.58088 -5.84287 17.2722 2.68799 -5.82342 17.5903 1.99477 -5.80208 17.9036 1.49819 -5.77833 18.2123 1.19632 -5.75175 18.5166 1.08841 -5.72197 18.8167 1.17484 -5.6887 19.1126 1.45719 -5.65167 19.4046 1.93835 -5.61066 19.6927 2.62252 -5.56548 19.9771 3.51539 -5.51597 20.2578 4.62427 -5.46199 20.5348 5.95824 -6.02347 21.9105 7.25318 -7.16491 24.3698 7.96706 -8.25446 26.8059 8.16786 -9.29214 29.2189 7.82148 -10.278 31.6092 6.88761 -11.2123 33.9767 5.31853 -12.095 36.3218 3.05771 -12.9263 38.6446 0.038033 -13.7066 40.9452 -3.82058 -14.436 43.2238 -8.61406 -15.1148 45.4804 -14.458 -15.7433 47.7153 -21.4928 -16.3218 49.9284 -29.89 -16.8506 52.12 -39.8617 -17.3301 54.2901 -51.6723 -5.24663 16.8592 5.83078 -5.18552 17.2037 4.56201 -5.12685 17.5429 3.49733 -5.06943 17.877 2.63173 -5.01231 18.2064 1.96134 -4.95465 18.5313 1.48337 -4.89576 18.852 1.19611 -4.83505 19.1687 1.09897 -4.77204 19.4815 1.19244 -4.70629 19.7905 1.47821 -4.63744 20.096 1.95919 -4.56517 20.398 2.63957 -4.48923 20.6967 3.52497 -4.40938 20.992 4.62258 -4.32544 21.2842 5.94128 -4.81418 22.6807 7.21824 -5.84084 25.1688 7.91302 -6.8167 27.637 8.09214 -7.74162 30.0856 7.72098 -8.61552 32.5146 6.75871 -9.43835 34.9244 5.15718 -10.2101 37.315 2.85954 -10.9309 39.6866 -0.201556 -11.6008 42.0393 -4.10613 -12.22 44.3732 -8.94975 -12.7885 46.6885 -14.8472 -13.3066 48.9853 -21.9372 -13.7745 51.2636 -30.3888 -14.1923 53.5236 -40.4097 -14.5605 55.7653 -52.2579 -4.60596 17.4409 5.66104 -4.49512 17.7942 4.43345 -4.38961 18.1425 3.4043 -4.28781 18.4862 2.56898 -4.18838 18.8255 1.9239 -4.09019 19.1608 1.46656 -3.99229 19.4923 1.19547 -3.89388 19.8202 1.11021 -3.79429 20.1447 1.2114 -3.69294 20.4659 1.50082 -3.58932 20.784 1.98139 -3.48302 21.099 2.6573 -3.37366 21.4112 3.53408 -3.26093 21.7205 4.61876 -3.14455 22.0271 5.92001 -3.55708 23.4393 7.17671 -4.46489 25.9465 7.85035 -5.32365 28.4374 8.00569 -6.13299 30.9121 7.60755 -6.89261 33.3709 6.61462 -7.60229 35.8138 4.97834 -8.26186 38.241 2.64156 -8.87121 40.6527 -0.463185 -9.43028 43.0489 -4.41577 -9.93904 45.4299 -9.31125 -10.3975 47.7956 -15.2633 -10.8057 50.1462 -22.4088 -11.1638 52.4818 -30.9137 -11.4718 54.8024 -40.981 -11.7299 57.1082 -52.8613 -3.98068 18.038 5.47432 -3.81207 18.3978 4.29188 -3.6527 18.7531 3.30173 -3.50029 19.1043 2.49963 -3.35299 19.4517 1.88235 -3.20926 19.7956 1.44764 -3.06781 20.1363 1.19426 -2.92754 20.474 1.12196 -2.78753 20.8088 1.23151 -2.647 21.1409 1.52475 -2.50528 21.4703 2.00463 -2.36179 21.7974 2.6753 -2.21603 22.122 3.5422 -2.06757 22.4444 4.61218 -1.91605 22.7645 5.89365 -2.24874 24.1862 7.12773 -3.03373 26.7015 7.77831 -3.7722 29.204 7.90794 -4.46348 31.6941 7.48093 -5.10701 34.1718 6.45551 -5.70233 36.6374 4.78276 -6.24904 39.0909 2.40529 -6.74683 41.5325 -0.744343 -7.19544 43.9623 -4.74575 -7.59465 46.3804 -9.69325 -7.94432 48.7868 -15.6992 -8.24431 51.1817 -22.8982 -8.49456 53.5651 -31.4528 -8.69502 55.9371 -41.5605 -8.84568 58.2978 -53.464 -3.37929 18.659 5.27063 -3.14269 19.0219 4.13728 -2.92064 19.3812 3.18956 -2.70997 19.7371 2.42361 -2.50808 20.0901 1.83656 -2.31284 20.4403 1.42646 -2.12246 20.7881 1.1923 -1.93546 21.1335 1.13401 -1.7506 21.4768 1.2525 -1.56681 21.818 1.54968 -1.3832 22.1574 2.0285 -1.19898 22.4949 2.69308 -1.01348 22.8306 3.54873 -0.826146 23.1647 4.60209 -0.636463 23.4972 5.8613 -0.885603 24.9213 7.07037 -1.54402 27.4315 7.69611 -2.15935 29.933 7.79838 -2.73059 32.4258 7.34101 -3.25685 34.9102 6.28182 -3.73737 37.3862 4.57161 -4.17147 39.854 2.15289 -4.55858 42.3137 -1.04167 -4.8982 44.7652 -5.09119 -5.18991 47.2089 -10.089 -5.43333 49.6446 -16.1459 -5.62814 52.0724 -23.3938 -5.77409 54.4925 -31.9913 -5.87093 56.9049 -42.1299 -5.9185 59.3096 -54.0435 -2.81348 19.3155 5.04996 -2.49556 19.6767 3.96961 -2.19963 20.0355 3.06769 -1.92113 20.3923 2.3408 -1.65638 20.7473 1.7864 -1.40239 21.1006 1.40285 -1.1567 21.4525 1.18939 -0.91728 21.803 1.14612 -0.682421 22.1523 1.27408 -0.450695 22.5004 1.57524 -0.220888 22.8475 2.05256 0.00803664 23.1935 2.71009 0.236966 23.5386 3.55298 0.466664 23.8827 4.58767 0.697796 24.226 5.82196 0.535972 25.644 7.0036 0.0075942 28.134 7.60296 -0.482288 30.6195 7.67659 -0.932208 33.1004 7.18789 -1.34088 35.577 6.09438 -1.70716 38.0492 4.34667 -2.03005 40.5173 1.88732 -2.30867 42.9811 -1.3507 -2.54223 45.4408 -5.4458 -2.73003 47.8965 -10.4901 -2.87145 50.3481 -16.5923 -2.96595 52.7957 -23.8813 -3.01304 55.2393 -32.5111 -3.01227 57.6791 -42.6669 -2.96327 60.115 -54.5728 -2.29967 20.0241 4.81232 -1.88265 20.376 3.7888 -1.49823 20.728 2.93604 -1.1397 21.08 2.25106 -0.801756 21.4319 1.7317 -0.480163 21.7839 1.37661 -0.171473 22.1358 1.18528 0.127131 22.4878 1.15798 0.417983 22.8398 1.29588 0.703026 23.1917 1.601 0.983897 23.5437 2.07628 1.26198 23.8956 2.72568 1.53845 24.2476 3.55419 1.81433 24.5996 4.56799 2.09049 24.9515 5.77452 2.01973 26.3535 6.92634 1.62435 28.8054 7.49811 1.26152 31.2574 7.5423 0.933261 33.7093 7.02199 0.641367 36.1613 5.8945 0.387422 38.6132 4.11043 0.172835 41.0652 1.61255 -0.00113633 43.5171 -1.66562 -0.133366 45.9691 -5.80151 -0.222845 48.421 -10.8856 -0.268661 50.873 -17.0243 -0.269994 53.3249 -24.343 -0.226101 55.7769 -32.9905 -0.136308 58.2288 -43.1447 1.15489e-13 60.6808 -55.0196 -14.4882 -0.803276 -11.8856 -15.5136 -0.719527 -11.6491 -16.5262 -0.630976 -11.4887 -17.5241 -0.543035 -11.4034 -18.5057 -0.459918 -11.3925 -19.4695 -0.384953 -11.4555 -20.4139 -0.320788 -11.5921 -21.3374 -0.269549 -11.8024 -22.2386 -0.232947 -12.0867 -23.1159 -0.212367 -12.4454 -23.968 -0.208928 -12.8794 -24.7933 -0.223528 -13.3897 -25.5904 -0.256883 -13.9778 -26.3577 -0.309554 -14.6454 -27.0936 -0.381971 -15.3946 -27.4608 -0.582224 -16.1073 -27.4768 -0.838665 -16.7153 -27.4836 -1.0267 -17.3168 -27.4814 -1.15392 -17.9125 -27.4704 -1.22701 -18.5034 -27.4508 -1.25185 -19.0904 -27.4227 -1.23364 -19.6745 -27.3861 -1.17701 -20.2566 -27.3411 -1.08605 -20.838 -27.2876 -0.964449 -21.4197 -27.2255 -0.815464 -22.0029 -27.1548 -0.642032 -22.589 -27.0752 -0.44678 -23.1794 -26.9864 -0.232065 -23.7757 -26.8882 6.46475e-15 -24.3797 -13.7285 -0.508422 -11.8115 -14.7836 -0.294572 -11.5756 -15.823 -0.0884618 -11.413 -16.8452 0.106697 -11.3228 -17.8487 0.288359 -11.3041 -18.8321 0.454488 -11.3565 -19.7941 0.603449 -11.4796 -20.7331 0.733918 -11.6736 -21.648 0.844825 -11.9385 -22.5374 0.935304 -12.2752 -23.3998 1.00466 -12.6842 -24.2339 1.05234 -13.1669 -25.0384 1.0779 -13.7247 -25.8116 1.08102 -14.3595 -26.5522 1.06145 -15.0734 -26.9759 0.918912 -15.7682 -27.0955 0.716157 -16.3812 -27.1986 0.568296 -16.9927 -27.2857 0.468963 -17.6038 -27.3572 0.41254 -18.2157 -27.4134 0.394057 -18.8298 -27.4547 0.409099 -19.4474 -27.4811 0.45374 -20.0701 -27.4926 0.524476 -20.6994 -27.4893 0.618179 -21.3372 -27.471 0.732048 -21.9855 -27.4374 0.863576 -22.6463 -27.3882 1.01051 -23.322 -27.3229 1.17085 -24.0154 -27.2408 1.34279 -24.7294 -13.0302 -0.152065 -11.7428 -14.1043 0.171145 -11.5092 -15.1608 0.477986 -11.3463 -16.1983 0.76657 -11.2531 -17.2154 1.03538 -11.2286 -18.2107 1.2832 -11.2724 -19.183 1.50905 -11.3842 -20.1309 1.71212 -11.5639 -21.0532 1.89177 -11.8119 -21.9486 2.04748 -12.1287 -22.8158 2.17885 -12.5151 -23.6534 2.28555 -12.9725 -24.4602 2.36733 -13.5024 -25.2346 2.42402 -14.1066 -25.9753 2.45551 -14.7874 -26.4445 2.37003 -15.4635 -26.6511 2.22232 -16.077 -26.8352 2.11737 -16.6932 -26.9974 2.04985 -17.3135 -27.1385 2.01507 -17.9394 -27.2587 2.00885 -18.5727 -27.3584 2.02744 -19.2152 -27.4377 2.06753 -19.8688 -27.4967 2.12614 -20.5357 -27.5354 2.2006 -21.2184 -27.5533 2.28852 -21.9196 -27.5502 2.38776 -22.6422 -27.5255 2.49638 -23.3896 -27.4784 2.61266 -24.1656 -27.408 2.73504 -24.9744 -12.3777 0.250007 -11.6793 -13.4629 0.666653 -11.4493 -14.5291 1.06095 -11.2876 -15.575 1.43182 -11.1928 -16.5992 1.77836 -11.1643 -17.6003 2.09987 -11.2013 -18.5771 2.39577 -11.3036 -19.5283 2.6656 -11.4711 -20.4528 2.909 -11.7041 -21.3492 3.12566 -12.0032 -22.2163 3.31538 -12.3694 -23.0529 3.47797 -12.8038 -23.8576 3.61332 -13.308 -24.6291 3.72135 -13.884 -25.366 3.80201 -14.5343 -25.8708 3.77249 -15.1916 -26.1494 3.6803 -15.8022 -26.4007 3.61998 -16.419 -26.6255 3.5871 -17.0437 -26.8243 3.57773 -17.6781 -26.9977 3.58837 -18.3243 -27.1459 3.61589 -18.9845 -27.2692 3.65747 -19.6612 -27.3675 3.71059 -20.3571 -27.4405 3.77297 -21.0752 -27.4881 3.84257 -21.8191 -27.5095 3.91754 -22.5925 -27.5041 3.99621 -23.3997 -27.4708 4.07706 -24.2456 -27.4083 4.15873 -25.1357 -11.7594 0.686297 -11.6211 -12.8498 1.18384 -11.3956 -13.9202 1.6549 -11.236 -14.969 2.09887 -11.141 -15.995 2.51523 -11.1097 -16.997 2.90357 -11.1415 -17.9735 3.26358 -11.2359 -18.9234 3.59499 -11.393 -19.8455 3.89762 -11.613 -20.7386 4.1713 -11.8965 -21.6016 4.41593 -12.2445 -22.4331 4.63144 -12.6581 -23.232 4.81777 -13.1391 -23.9969 4.9749 -13.6895 -24.7265 5.10281 -14.3117 -25.2582 5.12781 -14.9505 -25.5955 5.09089 -15.5559 -25.9017 5.07606 -16.1704 -26.1774 5.07967 -16.7959 -26.4235 5.09845 -17.4345 -26.6403 5.12948 -18.0886 -26.8281 5.17013 -18.7609 -26.9871 5.21803 -19.4543 -27.1171 5.27104 -20.172 -27.218 5.32722 -20.9178 -27.2891 5.38479 -21.6957 -27.3299 5.44216 -22.5104 -27.3392 5.49783 -23.3671 -27.3159 5.55046 -24.2718 -27.2583 5.59879 -25.2312 -11.1668 1.14826 -11.5681 -12.2578 1.71659 -11.3477 -13.3278 2.25564 -11.1909 -14.3752 2.76504 -11.0966 -15.3989 3.24447 -11.0636 -16.3974 3.69372 -11.0914 -17.3696 4.1126 -11.1794 -18.3143 4.50097 -11.3277 -19.2303 4.85873 -11.5365 -20.1165 5.18581 -11.8063 -20.9717 5.48216 -12.1382 -21.7948 5.74775 -12.5333 -22.5845 5.98256 -12.9934 -23.3396 6.18659 -13.5205 -24.0588 6.35983 -14.1172 -24.6096 6.43762 -14.7383 -24.9937 6.45509 -15.3371 -25.3435 6.4859 -15.9473 -25.66 6.52704 -16.5709 -25.9437 6.57582 -17.2105 -26.1951 6.6298 -17.8687 -26.4144 6.6868 -18.5487 -26.6017 6.7448 -19.2537 -26.7568 6.802 -19.9875 -26.8794 6.85672 -20.7544 -26.9689 6.90742 -21.5591 -27.0243 6.95267 -22.4071 -27.0445 6.99113 -23.3045 -27.028 7.02154 -24.2582 -26.9729 7.04268 -25.2764 -10.5934 1.62945 -11.5205 -11.6813 2.26029 -11.3053 -12.7472 2.85999 -11.1518 -13.7897 3.42829 -11.0588 -14.8074 3.965 -11.025 -15.7991 4.46997 -11.0497 -16.7636 4.94309 -11.1326 -17.6996 5.38426 -11.2735 -18.6063 5.79343 -11.4727 -19.4823 6.17057 -11.7306 -20.3266 6.51564 -12.0484 -21.1382 6.82863 -12.4271 -21.9158 7.10953 -12.8687 -22.6583 7.35832 -13.375 -23.3644 7.575 -13.9488 -23.9274 7.70363 -14.5533 -24.3474 7.77411 -15.1446 -24.731 7.85009 -15.7491 -25.0788 7.92911 -16.3692 -25.3915 8.00896 -17.0074 -25.6696 8.08764 -17.667 -25.9131 8.16332 -18.3512 -26.122 8.23431 -19.0638 -26.2963 8.29906 -19.8091 -26.4353 8.3561 -20.5918 -26.5383 8.40409 -21.4174 -26.6044 8.44172 -22.292 -26.6321 8.46772 -23.2225 -26.6198 8.48089 -24.2169 -26.5653 8.47999 -25.2844 -10.0343 2.12493 -11.4782 -11.1161 2.81136 -11.2682 -12.1748 3.46549 -11.1182 -13.2092 4.08711 -11.0268 -14.2179 4.67605 -10.9928 -15.1997 5.23217 -11.0154 -16.1534 5.75538 -11.0942 -17.078 6.24561 -11.229 -17.9724 6.7028 -11.42 -18.8354 7.12692 -11.6677 -19.6662 7.51792 -11.9732 -20.4636 7.87579 -12.3377 -21.2266 8.20049 -12.7629 -21.9539 8.49198 -13.2509 -22.6445 8.75022 -13.8044 -23.2134 8.92758 -14.3937 -23.6597 9.04924 -14.9772 -24.0679 9.16939 -15.5754 -24.4388 9.28604 -16.1907 -24.7727 9.3974 -16.8262 -25.0702 9.50181 -17.4851 -25.3314 9.59777 -18.1711 -25.5561 9.68384 -18.8883 -25.744 9.75868 -19.6415 -25.8947 9.82102 -20.4359 -26.0072 9.86961 -21.2774 -26.0805 9.90324 -22.1729 -26.1129 9.9207 -23.1301 -26.1027 9.92074 -24.1579 -26.0475 9.9021 -25.2664 -9.48571 2.63091 -11.4411 -10.5586 3.36707 -11.2361 -11.6075 4.0703 -11.0897 -12.6311 4.74037 -11.0001 -13.6281 5.37709 -10.9664 -14.5974 5.98031 -10.9875 -15.5378 6.54991 -11.063 -16.4482 7.0858 -11.1928 -17.3278 7.5879 -11.3769 -18.1754 8.05615 -11.616 -18.9902 8.49049 -11.911 -19.771 8.89085 -12.2632 -20.517 9.25718 -12.6743 -21.227 9.58938 -13.1464 -21.9 9.88737 -13.6822 -22.469 10.1112 -14.2578 -22.9329 10.2819 -14.8338 -23.3577 10.4447 -15.4254 -23.7439 10.5982 -16.0356 -24.0922 10.7409 -16.6674 -24.4027 10.8715 -17.3243 -24.6756 10.9887 -18.0103 -24.9107 11.0913 -18.73 -25.1076 11.178 -19.4883 -25.2658 11.2479 -20.291 -25.3842 11.2997 -21.1445 -25.4616 11.3322 -22.0563 -25.4965 11.3443 -23.0347 -25.4867 11.3347 -24.0896 -25.4298 11.3019 -25.232 -8.94466 3.14445 -11.4094 -10.0063 3.9253 -11.209 -11.043 4.67299 -11.0658 -12.0533 5.38724 -10.9782 -13.0362 6.06781 -10.9449 -13.9905 6.7145 -10.965 -14.9152 7.32714 -11.0381 -15.8092 7.9056 -11.1638 -