<?xml version="1.0"?> 
<VTKFile type="StructuredGrid" version="0.1"> 
<StructuredGrid WholeExtent="0 29 0 29 0 29"> 
<Piece Extent="0 29 0 29 0 29"> 
<PointData>
<DataArray type="Float32" Name="efield" format="ascii" NumberOfComponents="3"> 
-3.6362e-12 -19.0337 45.8079 0.789803 -18.5108 46.8638 1.57007 -17.9784 47.8442 2.34081 -17.4365 48.7491 3.10201 -16.885 49.5787 3.85368 -16.324 50.3329 4.59582 -15.7535 51.0116 5.32842 -15.1734 51.6149 6.05149 -14.5838 52.1428 6.76502 -13.9847 52.5953 7.46902 -13.376 52.9724 8.16349 -12.7578 53.2741 8.84842 -12.1301 53.5003 9.52382 -11.4928 53.6512 10.1897 -10.846 53.7266 10.846 -10.1897 53.7266 11.4928 -9.52382 53.6512 12.1301 -8.84842 53.5003 12.7578 -8.16349 53.2741 13.376 -7.46902 52.9724 13.9847 -6.76502 52.5953 14.5838 -6.05149 52.1428 15.1734 -5.32842 51.6149 15.7535 -4.59582 51.0116 16.324 -3.85368 50.3329 16.885 -3.10201 49.5787 17.4365 -2.34081 48.7491 17.9784 -1.57007 47.8442 18.5108 -0.789803 46.8638 19.0337 3.01981e-14 45.8079 -0.789803 -18.5108 46.8638 -3.71059e-12 -17.9695 47.9344 0.780927 -17.4194 48.9285 1.55298 -16.8604 49.8462 2.31615 -16.2925 50.6874 3.07045 -15.7157 51.4521 3.81588 -15.13 52.1404 4.55242 -14.5355 52.7522 5.28009 -13.9321 53.2875 5.99889 -13.3198 53.7463 6.70881 -12.6986 54.1287 7.40985 -12.0686 54.4346 8.10201 -11.4297 54.664 8.7853 -10.7819 54.817 9.45972 -10.1253 54.8934 10.1253 -9.45972 54.8934 10.7819 -8.7853 54.817 11.4297 -8.10201 54.664 12.0686 -7.40985 54.4346 12.6986 -6.70881 54.1287 13.3198 -5.99889 53.7463 13.9321 -5.28009 53.2875 14.5355 -4.55242 52.7522 15.13 -3.81588 52.1404 15.7157 -3.07045 51.4521 16.2925 -2.31615 50.6874 16.8604 -1.55298 49.8462 17.4194 -0.780927 48.9285 17.9695 -7.04487e-13 47.9344 18.5108 0.789803 46.8638 -1.57007 -17.9784 47.8442 -0.780927 -17.4194 48.9285 -3.89229e-12 -16.8521 49.9355 0.772709 -16.2767 50.8649 1.5372 -15.693 51.7169 2.29347 -15.1011 52.4915 3.04152 -14.501 53.1886 3.78136 -13.8926 53.8082 4.51297 -13.2761 54.3504 5.23637 -12.6513 54.8151 5.95155 -12.0183 55.2024 6.65851 -11.3771 55.5122 7.35725 -10.7277 55.7446 8.04777 -10.07 55.8995 8.73008 -9.40416 55.977 9.40416 -8.73008 55.977 10.07 -8.04777 55.8995 10.7277 -7.35725 55.7446 11.3771 -6.65851 55.5122 12.0183 -5.95155 55.2024 12.6513 -5.23637 54.8151 13.2761 -4.51297 54.3504 13.8926 -3.78136 53.8082 14.501 -3.04152 53.1886 15.1011 -2.29347 52.4915 15.693 -1.5372 51.7169 16.2767 -0.772709 50.8649 16.8521 -1.31951e-12 49.9355 17.4194 0.780927 48.9285 17.9784 1.57007 47.8442 -2.34081 -17.4365 48.7491 -1.55298 -16.8604 49.8462 -0.772709 -16.2767 50.8649 -4.17592e-12 -15.6854 51.8053 0.765147 -15.0866 52.6672 1.52273 -14.4803 53.4509 2.27276 -13.8663 54.1561 3.01522 -13.2449 54.783 3.75013 -12.6158 55.3315 4.47747 -11.9792 55.8017 5.19725 -11.335 56.1935 5.90947 -10.6833 56.507 6.61413 -10.024 56.7421 7.31122 -9.35715 56.8988 8.00076 -8.68274 56.9771 8.68274 -8.00076 56.9771 9.35715 -7.31122 56.8988 10.024 -6.61413 56.7421 10.6833 -5.90947 56.507 11.335 -5.19725 56.1935 11.9792 -4.47747 55.8017 12.6158 -3.75013 55.3315 13.2449 -3.01522 54.783 13.8663 -2.27276 54.1561 14.4803 -1.52273 53.4509 15.0866 -0.765147 52.6672 15.6854 -1.8226e-12 51.8053 16.2767 0.772709 50.8649 16.8604 1.55298 49.8462 17.4365 2.34081 48.7491 -3.10201 -16.885 49.5787 -2.31615 -16.2925 50.6874 -1.5372 -15.693 51.7169 -0.765147 -15.0866 52.6672 -4.54086e-12 -14.4734 53.5384 0.758244 -13.8532 54.3303 1.50958 -13.2261 55.043 2.25402 -12.5921 55.6766 2.99155 -11.9513 56.2309 3.72218 -11.3035 56.7061 4.44591 -10.6488 57.102 5.16273 -9.98718 57.4188 5.87265 -9.31869 57.6564 6.57566 -8.64329 57.8148 7.27178 -7.96098 57.894 7.96098 -7.27178 57.894 8.64329 -6.57566 57.8148 9.31869 -5.87265 57.6564 9.98718 -5.16273 57.4188 10.6488 -4.44591 57.102 11.3035 -3.72218 56.7061 11.9513 -2.99155 56.2309 12.5921 -2.25402 55.6766 13.2261 -1.50958 55.043 13.8532 -0.758244 54.3303 14.4734 -2.22991e-12 53.5384 15.0866 0.765147 52.6672 15.693 1.5372 51.7169 16.2925 2.31615 50.6874 16.885 3.10201 49.5787 -3.85368 -16.324 50.3329 -3.07045 -15.7157 51.4521 -2.29347 -15.1011 52.4915 -1.52273 -14.4803 53.4509 -0.758244 -13.8532 54.3303 -4.97534e-12 -13.2199 55.1298 0.751998 -12.5803 55.8493 1.49775 -11.9345 56.4889 2.23725 -11.2824 57.0485 2.97051 -10.6241 57.5282 3.69753 -9.95957 57.928 4.41829 -9.28877 58.2478 5.13282 -8.61173 58.4876 5.84109 -7.92844 58.6475 6.54312 -7.2389 58.7274 7.2389 -6.54312 58.7274 7.92844 -5.84109 58.6475 8.61173 -5.13282 58.4876 9.28877 -4.41829 58.2478 9.95957 -3.69753 57.928 10.6241 -2.97051 57.5282 11.2824 -2.23725 57.0485 11.9345 -1.49775 56.4889 12.5803 -0.751998 55.8493 13.2199 -2.54162e-12 55.1298 13.8532 0.758244 54.3303 14.4803 1.52273 53.4509 15.1011 2.29347 52.4915 15.7157 3.07045 51.4521 16.324 3.85368 50.3329 -4.59582 -15.7535 51.0116 -3.81588 -15.13 52.1404 -3.04152 -14.501 53.1886 -2.27276 -13.8663 54.1561 -1.50958 -13.2261 55.043 -0.751998 -12.5803 55.8493 -5.46597e-12 -11.9289 56.575 0.746409 -11.2719 57.22 1.48723 -10.6093 57.7844 2.22246 -9.94116 58.2682 2.9521 -9.2674 58.6713 3.67616 -8.58806 58.9938 4.39462 -7.90312 59.2357 5.1075 -7.2126 59.397 5.81479 -6.51649 59.4776 6.51649 -5.81479 59.4776 7.2126 -5.1075 59.397 7.90312 -4.39462 59.2357 8.58806 -3.67616 58.9938 9.2674 -2.9521 58.6713 9.94116 -2.22246 58.2682 10.6093 -1.48723 57.7844 11.2719 -0.746409 57.22 11.9289 -2.77522e-12 56.575 12.5803 0.751998 55.8493 13.2261 1.50958 55.043 13.8663 2.27276 54.1561 14.501 3.04152 53.1886 15.13 3.81588 52.1404 15.7535 4.59582 51.0116 -5.32842 -15.1734 51.6149 -4.55242 -14.5355 52.7522 -3.78136 -13.8926 53.8082 -3.01522 -13.2449 54.783 -2.25402 -12.5921 55.6766 -1.49775 -11.9345 56.4889 -0.746409 -11.2719 57.22 -5.99774e-12 -10.6044 57.8698 0.741478 -9.93196 58.4385 1.47802 -9.25458 58.9259 2.20964 -8.57228 59.332 2.93632 -7.88504 59.657 3.65808 -7.19288 59.9007 4.3749 -6.49578 60.0631 5.08679 -5.79375 60.1444 5.79375 -5.08679 60.1444 6.49578 -4.3749 60.0631 7.19288 -3.65808 59.9007 7.88504 -2.93632 59.657 8.57228 -2.20964 59.332 9.25458 -1.47802 58.9259 9.93196 -0.741478 58.4385 10.6044 -2.92954e-12 57.8698 11.2719 0.746409 57.22 11.9345 1.49775 56.4889 12.5921 2.25402 55.6766 13.2449 3.01522 54.783 13.8926 3.78136 53.8082 14.5355 4.55242 52.7522 15.1734 5.32842 51.6149 -6.05149 -14.5838 52.1428 -5.28009 -13.9321 53.2875 -4.51297 -13.2761 54.3504 -3.75013 -12.6158 55.3315 -2.99155 -11.9513 56.2309 -2.23725 -11.2824 57.0485 -1.48723 -10.6093 57.7844 -0.741478 -9.93196 58.4385 -6.55886e-12 -9.25031 59.0108 0.737204 -8.56439 59.5014 1.47013 -7.87419 59.9102 2.19879 -7.17973 60.2372 2.92317 -6.48099 60.4825 3.64328 -5.77797 60.646 4.35912 -5.07068 60.7278 5.07068 -4.35912 60.7278 5.77797 -3.64328 60.646 6.48099 -2.92317 60.4825 7.17973 -2.19879 60.2372 7.87419 -1.47013 59.9102 8.56439 -0.737204 59.5014 9.25031 -3.02142e-12 59.0108 9.93196 0.741478 58.4385 10.6093 1.48723 57.7844 11.2824 2.23725 57.0485 11.9513 2.99155 56.2309 12.6158 3.75013 55.3315 13.2761 4.51297 54.3504 13.9321 5.28009 53.2875 14.5838 6.05149 52.1428 -6.76502 -13.9847 52.5953 -5.99889 -13.3198 53.7463 -5.23637 -12.6513 54.8151 -4.47747 -11.9792 55.8017 -3.72218 -11.3035 56.7061 -2.97051 -10.6241 57.5282 -2.22246 -9.94116 58.2682 -1.47802 -9.25458 58.9259 -0.737204 -8.56439 59.5014 -7.13276e-12 -7.87058 59.9947 0.733588 -7.17315 60.4057 1.46356 -6.47211 60.7346 2.18992 -5.76745 60.9812 2.91266 -5.05918 61.1457 3.63178 -4.34729 61.2279 4.34729 -3.63178 61.2279 5.05918 -2.91266 61.1457 5.76745 -2.18992 60.9812 6.47211 -1.46356 60.7346 7.17315 -0.733588 60.4057 7.87058 -3.0589e-12 59.9947 8.56439 0.737204 59.5014 9.25458 1.47802 58.9259 9.94116 2.22246 58.2682 10.6241 2.97051 57.5282 11.3035 3.72218 56.7061 11.9792 4.47747 55.8017 12.6513 5.23637 54.8151 13.3198 5.99889 53.7463 13.9847 6.76502 52.5953 -7.46902 -13.376 52.9724 -6.70881 -12.6986 54.1287 -5.95155 -12.0183 55.2024 -5.19725 -11.335 56.1935 -4.44591 -10.6488 57.102 -3.69753 -9.95957 57.928 -2.9521 -9.2674 58.6713 -2.20964 -8.57228 59.332 -1.47013 -7.87419 59.9102 -0.733588 -7.17315 60.4057 -7.70809e-12 -6.46915 60.8187 0.730629 -5.76219 61.1491 1.4583 -5.05227 61.3969 2.18301 -4.3394 61.562 2.90477 -3.62356 61.6446 3.62356 -2.90477 61.6446 4.3394 -2.18301 61.562 5.05227 -1.4583 61.3969 5.76219 -0.730629 61.1491 6.46915 -3.05116e-12 60.8187 7.17315 0.733588 60.4057 7.87419 1.47013 59.9102 8.57228 2.20964 59.332 9.2674 2.9521 58.6713 9.95957 3.69753 57.928 10.6488 4.44591 57.102 11.335 5.19725 56.1935 12.0183 5.95155 55.2024 12.6986 6.70881 54.1287 13.376 7.46902 52.9724 -8.16349 -12.7578 53.2741 -7.40985 -12.0686 54.4346 -6.65851 -11.3771 55.5122 -5.90947 -10.6833 56.507 -5.16273 -9.98718 57.4188 -4.41829 -9.28877 58.2478 -3.67616 -8.58806 58.9938 -2.93632 -7.88504 59.657 -2.19879 -7.17973 60.2372 -1.46356 -6.47211 60.7346 -0.730629 -5.76219 61.1491 -8.26982e-12 -5.04997 61.4807 0.728328 -4.33545 61.7293 1.45436 -3.61863 61.8951 2.17808 -2.89951 61.978 2.89951 -2.17808 61.978 3.61863 -1.45436 61.8951 4.33545 -0.728328 61.7293 5.04997 -3.00373e-12 61.4807 5.76219 0.730629 61.1491 6.47211 1.46356 60.7346 7.17973 2.19879 60.2372 7.88504 2.93632 59.657 8.58806 3.67616 58.9938 9.28877 4.41829 58.2478 9.98718 5.16273 57.4188 10.6833 5.90947 56.507 11.3771 6.65851 55.5122 12.0686 7.40985 54.4346 12.7578 8.16349 53.2741 -8.84842 -12.1301 53.5003 -8.10201 -11.4297 54.664 -7.35725 -10.7277 55.7446 -6.61413 -10.024 56.7421 -5.87265 -9.31869 57.6564 -5.13282 -8.61173 58.4876 -4.39462 -7.90312 59.2357 -3.65808 -7.19288 59.9007 -2.92317 -6.48099 60.4825 -2.18992 -5.76745 60.9812 -1.4583 -5.05227 61.3969 -0.728328 -4.33545 61.7293 -8.80406e-12 -3.61698 61.9787 0.726684 -2.89688 62.1449 1.45173 -2.17512 62.2281 2.17512 -1.45173 62.2281 2.89688 -0.726684 62.1449 3.61698 -2.92953e-12 61.9787 4.33545 0.728328 61.7293 5.05227 1.4583 61.3969 5.76745 2.18992 60.9812 6.48099 2.92317 60.4825 7.19288 3.65808 59.9007 7.90312 4.39462 59.2357 8.61173 5.13282 58.4876 9.31869 5.87265 57.6564 10.024 6.61413 56.7421 10.7277 7.35725 55.7446 11.4297 8.10201 54.664 12.1301 8.84842 53.5003 -9.52382 -11.4928 53.6512 -8.7853 -10.7819 54.817 -8.04777 -10.07 55.8995 -7.31122 -9.35715 56.8988 -6.57566 -8.64329 57.8148 -5.84109 -7.92844 58.6475 -5.1075 -7.2126 59.397 -4.3749 -6.49578 60.0631 -3.64328 -5.77797 60.646 -2.91266 -5.05918 61.1457 -2.18301 -4.3394 61.562 -1.45436 -3.61863 61.8951 -0.726684 -2.89688 62.1449 -9.29729e-12 -2.17414 62.3115 0.725698 -1.45041 62.3948 1.45041 -0.725698 62.3948 2.17414 -2.83364e-12 62.3115 2.89688 0.726684 62.1449 3.61863 1.45436 61.8951 4.3394 2.18301 61.562 5.05918 2.91266 61.1457 5.77797 3.64328 60.646 6.49578 4.3749 60.0631 7.2126 5.1075 59.397 7.92844 5.84109 58.6475 8.64329 6.57566 57.8148 9.35715 7.31122 56.8988 10.07 8.04777 55.8995 10.7819 8.7853 54.817 11.4928 9.52382 53.6512 -10.1897 -10.846 53.7266 -9.45972 -10.1253 54.8934 -8.73008 -9.40416 55.977 -8.00076 -8.68274 56.9771 -7.27178 -7.96098 57.894 -6.54312 -7.2389 58.7274 -5.81479 -6.51649 59.4776 -5.08679 -5.79375 60.1444 -4.35912 -5.07068 60.7278 -3.63178 -4.34729 61.2279 -2.90477 -3.62356 61.6446 -2.17808 -2.89951 61.978 -1.45173 -2.17512 62.2281 -0.725698 -1.45041 62.3948 -9.73574e-12 -0.725369 62.4781 0.725369 -2.72737e-12 62.4781 1.45041 0.725698 62.3948 2.17512 1.45173 62.2281 2.89951 2.17808 61.978 3.62356 2.90477 61.6446 4.34729 3.63178 61.2279 5.07068 4.35912 60.7278 5.79375 5.08679 60.1444 6.51649 5.81479 59.4776 7.2389 6.54312 58.7274 7.96098 7.27178 57.894 8.68274 8.00076 56.9771 9.40416 8.73008 55.977 10.1253 9.45972 54.8934 10.846 10.1897 53.7266 -10.846 -10.1897 53.7266 -10.1253 -9.45972 54.8934 -9.40416 -8.73008 55.977 -8.68274 -8.00076 56.9771 -7.96098 -7.27178 57.894 -7.2389 -6.54312 58.7274 -6.51649 -5.81479 59.4776 -5.79375 -5.08679 60.1444 -5.07068 -4.35912 60.7278 -4.34729 -3.63178 61.2279 -3.62356 -2.90477 61.6446 -2.89951 -2.17808 61.978 -2.17512 -1.45173 62.2281 -1.45041 -0.725698 62.3948 -0.725369 -2.505e-12 62.4781 -1.00035e-11 0.725369 62.4781 0.725698 1.45041 62.3948 1.45173 2.17512 62.2281 2.17808 2.89951 61.978 2.90477 3.62356 61.6446 3.63178 4.34729 61.2279 4.35912 5.07068 60.7278 5.08679 5.79375 60.1444 5.81479 6.51649 59.4776 6.54312 7.2389 58.7274 7.27178 7.96098 57.894 8.00076 8.68274 56.9771 8.73008 9.40416 55.977 9.45972 10.1253 54.8934 10.1897 10.846 53.7266 -11.4928 -9.52382 53.6512 -10.7819 -8.7853 54.817 -10.07 -8.04777 55.8995 -9.35715 -7.31122 56.8988 -8.64329 -6.57566 57.8148 -7.92844 -5.84109 58.6475 -7.2126 -5.1075 59.397 -6.49578 -4.3749 60.0631 -5.77797 -3.64328 60.646 -5.05918 -2.91266 61.1457 -4.3394 -2.18301 61.562 -3.61863 -1.45436 61.8951 -2.89688 -0.726684 62.1449 -2.17414 -2.2719e-12 62.3115 -1.45041 0.725698 62.3948 -0.725698 1.45041 62.3948 -1.01929e-11 2.17414 62.3115 0.726684 2.89688 62.1449 1.45436 3.61863 61.8951 2.18301 4.3394 61.562 2.91266 5.05918 61.1457 3.64328 5.77797 60.646 4.3749 6.49578 60.0631 5.1075 7.2126 59.397 5.84109 7.92844 58.6475 6.57566 8.64329 57.8148 7.31122 9.35715 56.8988 8.04777 10.07 55.8995 8.7853 10.7819 54.817 9.52382 11.4928 53.6512 -12.1301 -8.84842 53.5003 -11.4297 -8.10201 54.664 -10.7277 -7.35725 55.7446 -10.024 -6.61413 56.7421 -9.31869 -5.87265 57.6564 -8.61173 -5.13282 58.4876 -7.90312 -4.39462 59.2357 -7.19288 -3.65808 59.9007 -6.48099 -2.92317 60.4825 -5.76745 -2.18992 60.9812 -5.05227 -1.4583 61.3969 -4.33545 -0.728328 61.7293 -3.61698 -2.18003e-12 61.9787 -2.89688 0.726684 62.1449 -2.17512 1.45173 62.2281 -1.45173 2.17512 62.2281 -0.726684 2.89688 62.1449 -1.044e-11 3.61698 61.9787 0.728328 4.33545 61.7293 1.4583 5.05227 61.3969 2.18992 5.76745 60.9812 2.92317 6.48099 60.4825 3.65808 7.19288 59.9007 4.39462 7.90312 59.2357 5.13282 8.61173 58.4876 5.87265 9.31869 57.6564 6.61413 10.024 56.7421 7.35725 10.7277 55.7446 8.10201 11.4297 54.664 8.84842 12.1301 53.5003 -12.7578 -8.16349 53.2741 -12.0686 -7.40985 54.4346 -11.3771 -6.65851 55.5122 -10.6833 -5.90947 56.507 -9.98718 -5.16273 57.4188 -9.28877 -4.41829 58.2478 -8.58806 -3.67616 58.9938 -7.88504 -2.93632 59.657 -7.17973 -2.19879 60.2372 -6.47211 -1.46356 60.7346 -5.76219 -0.730629 61.1491 -5.04997 -2.23066e-12 61.4807 -4.33545 0.728328 61.7293 -3.61863 1.45436 61.8951 -2.89951 2.17808 61.978 -2.17808 2.89951 61.978 -1.45436 3.61863 61.8951 -0.728328 4.33545 61.7293 -1.07479e-11 5.04997 61.4807 0.730629 5.76219 61.1491 1.46356 6.47211 60.7346 2.19879 7.17973 60.2372 2.93632 7.88504 59.657 3.67616 8.58806 58.9938 4.41829 9.28877 58.2478 5.16273 9.98718 57.4188 5.90947 10.6833 56.507 6.65851 11.3771 55.5122 7.40985 12.0686 54.4346 8.16349 12.7578 53.2741 -13.376 -7.46902 52.9724 -12.6986 -6.70881 54.1287 -12.0183 -5.95155 55.2024 -11.335 -5.19725 56.1935 -10.6488 -4.44591 57.102 -9.95957 -3.69753 57.928 -9.2674 -2.9521 58.6713 -8.57228 -2.20964 59.332 -7.87419 -1.47013 59.9102 -7.17315 -0.733588 60.4057 -6.46915 -2.43394e-12 60.8187 -5.76219 0.730629 61.1491 -5.05227 1.4583 61.3969 -4.3394 2.18301 61.562 -3.62356 2.90477 61.6446 -2.90477 3.62356 61.6446 -2.18301 4.3394 61.562 -1.4583 5.05227 61.3969 -0.730629 5.76219 61.1491 -1.11168e-11 6.46915 60.8187 0.733588 7.17315 60.4057 1.47013 7.87419 59.9102 2.20964 8.57228 59.332 2.9521 9.2674 58.6713 3.69753 9.95957 57.928 4.44591 10.6488 57.102 5.19725 11.335 56.1935 5.95155 12.0183 55.2024 6.70881 12.6986 54.1287 7.46902 13.376 52.9724 -13.9847 -6.76502 52.5953 -13.3198 -5.99889 53.7463 -12.6513 -5.23637 54.8151 -11.9792 -4.47747 55.8017 -11.3035 -3.72218 56.7061 -10.6241 -2.97051 57.5282 -9.94116 -2.22246 58.2682 -9.25458 -1.47802 58.9259 -8.56439 -0.737204 59.5014 -7.87058 -2.7901e-12 59.9947 -7.17315 0.733588 60.4057 -6.47211 1.46356 60.7346 -5.76745 2.18992 60.9812 -5.05918 2.91266 61.1457 -4.34729 3.63178 61.2279 -3.63178 4.34729 61.2279 -2.91266 5.05918 61.1457 -2.18992 5.76745 60.9812 -1.46356 6.47211 60.7346 -0.733588 7.17315 60.4057 -1.15479e-11 7.87058 59.9947 0.737204 8.56439 59.5014 1.47802 9.25458 58.9259 2.22246 9.94116 58.2682 2.97051 10.6241 57.5282 3.72218 11.3035 56.7061 4.47747 11.9792 55.8017 5.23637 12.6513 54.8151 5.99889 13.3198 53.7463 6.76502 13.9847 52.5953 -14.5838 -6.05149 52.1428 -13.9321 -5.28009 53.2875 -13.2761 -4.51297 54.3504 -12.6158 -3.75013 55.3315 -11.9513 -2.99155 56.2309 -11.2824 -2.23725 57.0485 -10.6093 -1.48723 57.7844 -9.93196 -0.741478 58.4385 -9.25031 -3.30769e-12 59.0108 -8.56439 0.737204 59.5014 -7.87419 1.47013 59.9102 -7.17973 2.19879 60.2372 -6.48099 2.92317 60.4825 -5.77797 3.64328 60.646 -5.07068 4.35912 60.7278 -4.35912 5.07068 60.7278 -3.64328 5.77797 60.646 -2.92317 6.48099 60.4825 -2.19879 7.17973 60.2372 -1.47013 7.87419 59.9102 -0.737204 8.56439 59.5014 -1.20463e-11 9.25031 59.0108 0.741478 9.93196 58.4385 1.48723 10.6093 57.7844 2.23725 11.2824 57.0485 2.99155 11.9513 56.2309 3.75013 12.6158 55.3315 4.51297 13.2761 54.3504 5.28009 13.9321 53.2875 6.05149 14.5838 52.1428 -15.1734 -5.32842 51.6149 -14.5355 -4.55242 52.7522 -13.8926 -3.78136 53.8082 -13.2449 -3.01522 54.783 -12.5921 -2.25402 55.6766 -11.9345 -1.49775 56.4889 -11.2719 -0.746409 57.22 -10.6044 -3.98936e-12 57.8698 -9.93196 0.741478 58.4385 -9.25458 1.47802 58.9259 -8.57228 2.20964 59.332 -7.88504 2.93632 59.657 -7.19288 3.65808 59.9007 -6.49578 4.3749 60.0631 -5.79375 5.08679 60.1444 -5.08679 5.79375 60.1444 -4.3749 6.49578 60.0631 -3.65808 7.19288 59.9007 -2.93632 7.88504 59.657 -2.20964 8.57228 59.332 -1.47802 9.25458 58.9259 -0.741478 9.93196 58.4385 -1.26124e-11 10.6044 57.8698 0.746409 11.2719 57.22 1.49775 11.9345 56.4889 2.25402 12.5921 55.6766 3.01522 13.2449 54.783 3.78136 13.8926 53.8082 4.55242 14.5355 52.7522 5.32842 15.1734 51.6149 -15.7535 -4.59582 51.0116 -15.13 -3.81588 52.1404 -14.501 -3.04152 53.1886 -13.8663 -2.27276 54.1561 -13.2261 -1.50958 55.043 -12.5803 -0.751998 55.8493 -11.9289 -4.84057e-12 56.575 -11.2719 0.746409 57.22 -10.6093 1.48723 57.7844 -9.94116 2.22246 58.2682 -9.2674 2.9521 58.6713 -8.58806 3.67616 58.9938 -7.90312 4.39462 59.2357 -7.2126 5.1075 59.397 -6.51649 5.81479 59.4776 -5.81479 6.51649 59.4776 -5.1075 7.2126 59.397 -4.39462 7.90312 59.2357 -3.67616 8.58806 58.9938 -2.9521 9.2674 58.6713 -2.22246 9.94116 58.2682 -1.48723 10.6093 57.7844 -0.746409 11.2719 57.22 -1.32463e-11 11.9289 56.575 0.751998 12.5803 55.8493 1.50958 13.2261 55.043 2.27276 13.8663 54.1561 3.04152 14.501 53.1886 3.81588 15.13 52.1404 4.59582 15.7535 51.0116 -16.324 -3.85368 50.3329 -15.7157 -3.07045 51.4521 -15.1011 -2.29347 52.4915 -14.4803 -1.52273 53.4509 -13.8532 -0.758244 54.3303 -13.2199 -5.86348e-12 55.1298 -12.5803 0.751998 55.8493 -11.9345 1.49775 56.4889 -11.2824 2.23725 57.0485 -10.6241 2.97051 57.5282 -9.95957 3.69753 57.928 -9.28877 4.41829 58.2478 -8.61173 5.13282 58.4876 -7.92844 5.84109 58.6475 -7.2389 6.54312 58.7274 -6.54312 7.2389 58.7274 -5.84109 7.92844 58.6475 -5.13282 8.61173 58.4876 -4.41829 9.28877 58.2478 -3.69753 9.95957 57.928 -2.97051 10.6241 57.5282 -2.23725 11.2824 57.0485 -1.49775 11.9345 56.4889 -0.751998 12.5803 55.8493 -1.39506e-11 13.2199 55.1298 0.758244 13.8532 54.3303 1.52273 14.4803 53.4509 2.29347 15.1011 52.4915 3.07045 15.7157 51.4521 3.85368 16.324 50.3329 -16.885 -3.10201 49.5787 -16.2925 -2.31615 50.6874 -15.693 -1.5372 51.7169 -15.0866 -0.765147 52.6672 -14.4734 -7.06524e-12 53.5384 -13.8532 0.758244 54.3303 -13.2261 1.50958 55.043 -12.5921 2.25402 55.6766 -11.9513 2.99155 56.2309 -11.3035 3.72218 56.7061 -10.6488 4.44591 57.102 -9.98718 5.16273 57.4188 -9.31869 5.87265 57.6564 -8.64329 6.57566 57.8148 -7.96098 7.27178 57.894 -7.27178 7.96098 57.894 -6.57566 8.64329 57.8148 -5.87265 9.31869 57.6564 -5.16273 9.98718 57.4188 -4.44591 10.6488 57.102 -3.72218 11.3035 56.7061 -2.99155 11.9513 56.2309 -2.25402 12.5921 55.6766 -1.50958 13.2261 55.043 -0.758244 13.8532 54.3303 -1.47287e-11 14.4734 53.5384 0.765147 15.0866 52.6672 1.5372 15.693 51.7169 2.31615 16.2925 50.6874 3.10201 16.885 49.5787 -17.4365 -2.34081 48.7491 -16.8604 -1.55298 49.8462 -16.2767 -0.772709 50.8649 -15.6854 -8.4473e-12 51.8053 -15.0866 0.765147 52.6672 -14.4803 1.52273 53.4509 -13.8663 2.27276 54.1561 -13.2449 3.01522 54.783 -12.6158 3.75013 55.3315 -11.9792 4.47747 55.8017 -11.335 5.19725 56.1935 -10.6833 5.90947 56.507 -10.024 6.61413 56.7421 -9.35715 7.31122 56.8988 -8.68274 8.00076 56.9771 -8.00076 8.68274 56.9771 -7.31122 9.35715 56.8988 -6.61413 10.024 56.7421 -5.90947 10.6833 56.507 -5.19725 11.335 56.1935 -4.47747 11.9792 55.8017 -3.75013 12.6158 55.3315 -3.01522 13.2449 54.783 -2.27276 13.8663 54.1561 -1.52273 14.4803 53.4509 -0.765147 15.0866 52.6672 -1.55804e-11 15.6854 51.8053 0.772709 16.2767 50.8649 1.55298 16.8604 49.8462 2.34081 17.4365 48.7491 -17.9784 -1.57007 47.8442 -17.4194 -0.780927 48.9285 -16.8521 -1.00203e-11 49.9355 -16.2767 0.772709 50.8649 -15.693 1.5372 51.7169 -15.1011 2.29347 52.4915 -14.501 3.04152 53.1886 -13.8926 3.78136 53.8082 -13.2761 4.51297 54.3504 -12.6513 5.23637 54.8151 -12.0183 5.95155 55.2024 -11.3771 6.65851 55.5122 -10.7277 7.35725 55.7446 -10.07 8.04777 55.8995 -9.40416 8.73008 55.977 -8.73008 9.40416 55.977 -8.04777 10.07 55.8995 -7.35725 10.7277 55.7446 -6.65851 11.3771 55.5122 -5.95155 12.0183 55.2024 -5.23637 12.6513 54.8151 -4.51297 13.2761 54.3504 -3.78136 13.8926 53.8082 -3.04152 14.501 53.1886 -2.29347 15.1011 52.4915 -1.5372 15.693 51.7169 -0.772709 16.2767 50.8649 -1.65068e-11 16.8521 49.9355 0.780927 17.4194 48.9285 1.57007 17.9784 47.8442 -18.5108 -0.789803 46.8638 -17.9695 -1.17845e-11 47.9344 -17.4194 0.780927 48.9285 -16.8604 1.55298 49.8462 -16.2925 2.31615 50.6874 -15.7157 3.07045 51.4521 -15.13 3.81588 52.1404 -14.5355 4.55242 52.7522 -13.9321 5.28009 53.2875 -13.3198 5.99889 53.7463 -12.6986 6.70881 54.1287 -12.0686 7.40985 54.4346 -11.4297 8.10201 54.664 -10.7819 8.7853 54.817 -10.1253 9.45972 54.8934 -9.45972 10.1253 54.8934 -8.7853 10.7819 54.817 -8.10201 11.4297 54.664 -7.40985 12.0686 54.4346 -6.70881 12.6986 54.1287 -5.99889 13.3198 53.7463 -5.28009 13.9321 53.2875 -4.55242 14.5355 52.7522 -3.81588 15.13 52.1404 -3.07045 15.7157 51.4521 -2.31615 16.2925 50.6874 -1.55298 16.8604 49.8462 -0.780927 17.4194 48.9285 -1.75149e-11 17.9695 47.9344 0.789803 18.5108 46.8638 -19.0337 -1.37419e-11 45.8079 -18.5108 0.789803 46.8638 -17.9784 1.57007 47.8442 -17.4365 2.34081 48.7491 -16.885 3.10201 49.5787 -16.324 3.85368 50.3329 -15.7535 4.59582 51.0116 -15.1734 5.32842 51.6149 -14.5838 6.05149 52.1428 -13.9847 6.76502 52.5953 -13.376 7.46902 52.9724 -12.7578 8.16349 53.2741 -12.1301 8.84842 53.5003 -11.4928 9.52382 53.6512 -10.846 10.1897 53.7266 -10.1897 10.846 53.7266 -9.52382 11.4928 53.6512 -8.84842 12.1301 53.5003 -8.16349 12.7578 53.2741 -7.46902 13.376 52.9724 -6.76502 13.9847 52.5953 -6.05149 14.5838 52.1428 -5.32842 15.1734 51.6149 -4.59582 15.7535 51.0116 -3.85368 16.324 50.3329 -3.10201 16.885 49.5787 -2.34081 17.4365 48.7491 -1.57007 17.9784 47.8442 -0.789803 18.5108 46.8638 -1.86002e-11 19.0337 45.8079 3.91154e-12 -20.0501 38.3186 0.831979 -19.4993 39.2018 1.65391 -18.9384 40.0219 2.46581 -18.3676 40.7789 3.26766 -17.7867 41.4728 4.05947 -17.1957 42.1037 4.84123 -16.5947 42.6715 5.61295 -15.9837 43.1761 6.37463 -15.3626 43.6177 7.12627 -14.7315 43.9962 7.86787 -14.0903 44.3117 8.59942 -13.4391 44.564 9.32093 -12.7778 44.7533 10.0324 -12.1065 44.8794 10.7338 -11.4252 44.9425 11.4252 -10.7338 44.9425 12.1065 -10.0324 44.8794 12.7778 -9.32093 44.7533 13.4391 -8.59942 44.564 14.0903 -7.86787 44.3117 14.7315 -7.12627 43.9962 15.3626 -6.37463 43.6177 15.9837 -5.61295 43.1761 16.5947 -4.84123 42.6715 17.1957 -4.05947 42.1037 17.7867 -3.26766 41.4728 18.3676 -2.46581 40.7789 18.9384 -1.65391 40.0219 19.4993 -0.831979 39.2018 20.0501 -1.40288e-11 38.3186 -0.831979 -19.4993 39.2018 3.24825e-12 -18.9291 40.0973 0.822629 -18.3496 40.9289 1.63591 -17.7607 41.6966 2.43984 -17.1625 42.4003 3.23441 -16.5549 43.04 4.01964 -15.938 43.6157 4.79552 -15.3117 44.1275 5.56205 -14.6761 44.5752 6.31923 -14.0311 44.9591 7.06705 -13.3768 45.2789 7.80553 -12.7131 45.5348 8.53466 -12.04 45.7267 9.25444 -11.3577 45.8547 9.96487 -10.6659 45.9186 10.6659 -9.96487 45.9186 11.3577 -9.25444 45.8547 12.04 -8.53466 45.7267 12.7131 -7.80553 45.5348 13.3768 -7.06705 45.2789 14.0311 -6.31923 44.9591 14.6761 -5.56205 44.5752 15.3117 -4.79552 44.1275 15.938 -4.01964 43.6157 16.5549 -3.23441 43.04 17.1625 -2.43984 42.4003 17.7607 -1.63591 41.6966 18.3496 -0.822629 40.9289 18.9291 -1.24252e-11 40.0973 19.4993 0.831979 39.2018 -1.65391 -18.9384 40.0219 -0.822629 -18.3496 40.9289 2.60699e-12 -17.752 41.7712 0.813971 -17.1458 42.5487 1.61928 -16.531 43.2615 2.41594 -15.9075 43.9094 3.20394 -15.2753 44.4925 3.98328 -14.6345 45.0108 4.75396 -13.985 45.4644 5.51599 -13.3269 45.8531 6.26936 -12.6601 46.1771 7.01407 -11.9846 46.4362 7.75012 -11.3005 46.6306 8.47752 -10.6078 46.7602 9.19626 -9.90634 46.825 9.90634 -9.19626 46.825 10.6078 -8.47752 46.7602 11.3005 -7.75012 46.6306 11.9846 -7.01407 46.4362 12.6601 -6.26936 46.1771 13.3269 -5.51599 45.8531 13.985 -4.75396 45.4644 14.6345 -3.98328 45.0108 15.2753 -3.20394 44.4925 15.9075 -2.41594 43.9094 16.531 -1.61928 43.2615 17.1458 -0.813971 42.5487 17.752 -1.09567e-11 41.7712 18.3496 0.822629 40.9289 18.9384 1.65391 40.0219 -2.46581 -18.3676 40.7789 -1.63591 -17.7607 41.6966 -0.813971 -17.1458 42.5487 1.99732e-12 -16.523 43.3353 0.806006 -15.8923 44.0564 1.60405 -15.2535 44.7119 2.39412 -14.6068 45.3018 3.17624 -13.9521 45.8262 3.95038 -13.2895 46.2851 4.71656 -12.6189 46.6784 5.47478 -11.9403 47.0061 6.22503 -11.2538 47.2683 6.96732 -10.5593 47.465 7.70164 -9.85682 47.5961 8.428 -9.14639 47.6616 9.14639 -8.428 47.6616 9.85682 -7.70164 47.5961 10.5593 -6.96732 47.465 11.2538 -6.22503 47.2683 11.9403 -5.47478 47.0061 12.6189 -4.71656 46.6784 13.2895 -3.95038 46.2851 13.9521 -3.17624 45.8262 14.6068 -2.39412 45.3018 15.2535 -1.60405 44.7119 15.8923 -0.806006 44.0564 16.523 -9.61752e-12 43.3353 17.1458 0.813971 42.5487 17.7607 1.63591 41.6966 18.3676 2.46581 40.7789 -3.26766 -17.7867 41.4728 -2.43984 -17.1625 42.4003 -1.61928 -16.531 43.2615 -0.806006 -15.8923 44.0564 1.39897e-12 -15.2462 44.7851 0.798734 -14.5929 45.4475 1.5902 -13.9324 46.0437 2.37439 -13.2646 46.5737 3.1513 -12.5894 47.0374 3.92095 -11.9071 47.4349 4.68332 -11.2174 47.7661 5.43842 -10.5205 48.0311 6.18625 -9.8163 48.2298 6.9268 -9.10484 48.3623 7.66009 -8.3861 48.4286 8.3861 -7.66009 48.4286 9.10484 -6.9268 48.3623 9.8163 -6.18625 48.2298 10.5205 -5.43842 48.0311 11.2174 -4.68332 47.7661 11.9071 -3.92095 47.4349 12.5894 -3.1513 47.0374 13.2646 -2.37439 46.5737 13.9324 -1.5902 46.0437 14.5929 -0.798734 45.4475 15.2462 -8.39794e-12 44.7851 15.8923 0.806006 44.0564 16.531 1.61928 43.2615 17.1625 2.43984 42.4003 17.7867 3.26766 41.4728 -4.05947 -17.1957 42.1037 -3.23441 -16.5549 43.04 -2.41594 -15.9075 43.9094 -1.60405 -15.2535 44.7119 -0.798734 -14.5929 45.4475 8.22864e-13 -13.9258 46.1163 0.792154 -13.2521 46.7182 1.57773 -12.5718 47.2532 2.35672 -11.8849 47.7214 3.12914 -11.1914 48.1226 3.89497 -10.4914 48.457 4.65423 -9.78479 48.7245 5.40691 -9.07159 48.9252 6.153 -8.35181 49.0589 6.89252 -7.62546 49.1258 7.62546 -6.89252 49.1258 8.35181 -6.153 49.0589 9.07159 -5.40691 48.9252 9.78479 -4.65423 48.7245 10.4914 -3.89497 48.457 11.1914 -3.12914 48.1226 11.8849 -2.35672 47.7214 12.5718 -1.57773 47.2532 13.2521 -0.792154 46.7182 13.9258 -7.29308e-12 46.1163 14.5929 0.798734 45.4475 15.2535 1.60405 44.7119 15.9075 2.41594 43.9094 16.5549 3.23441 43.04 17.1957 4.05947 42.1037 -4.84123 -16.5947 42.6715 -4.01964 -15.938 43.6157 -3.20394 -15.2753 44.4925 -2.39412 -14.6068 45.3018 -1.5902 -13.9324 46.0437 -0.792154 -13.2521 46.7182 2.56437e-13 -12.5659 47.3252 0.786267 -11.8738 47.8648 1.56665 -11.1759 48.3369 2.34114 -10.472 48.7416 3.10975 -9.76228 49.0788 3.87247 -9.04666 49.3486 4.6293 -8.32515 49.5509 5.38024 -7.59775 49.6858 6.1253 -6.86447 49.7533 6.86447 -6.1253 49.7533 7.59775 -5.38024 49.6858 8.32515 -4.6293 49.5509 9.04666 -3.87247 49.3486 9.76228 -3.10975 49.0788 10.472 -2.34114 48.7416 11.1759 -1.56665 48.3369 11.8738 -0.786267 47.8648 12.5659 -6.30205e-12 47.3252 13.2521 0.792154 46.7182 13.9324 1.5902 46.0437 14.6068 2.39412 45.3018 15.2753 3.20394 44.4925 15.938 4.01964 43.6157 16.5947 4.84123 42.6715 -5.61295 -15.9837 43.1761 -4.79552 -15.3117 44.1275 -3.98328 -14.6345 45.0108 -3.17624 -13.9521 45.8262 -2.37439 -13.2646 46.5737 -1.57773 -12.5718 47.2532 -0.786267 -11.8738 47.8648 -2.96376e-13 -11.1707 48.4084 0.781073 -10.4623 48.8841 1.55695 -9.74878 49.2918 2.32763 -9.03004 49.6315 3.09312 -8.3061 49.9033 3.85342 -7.57698 50.1072 4.60852 -6.84265 50.2431 5.35842 -6.10314 50.311 6.10314 -5.35842 50.311 6.84265 -4.60852 50.2431 7.57698 -3.85342 50.1072 8.3061 -3.09312 49.9033 9.03004 -2.32763 49.6315 9.74878 -1.55695 49.2918 10.4623 -0.781073 48.8841 11.1707 -5.41089e-12 48.4084 11.8738 0.786267 47.8648 12.5718 1.57773 47.2532 13.2646 2.37439 46.5737 13.9521 3.17624 45.8262 14.6345 3.98328 45.0108 15.3117 4.79552 44.1275 15.9837 5.61295 43.1761 -6.37463 -15.3626 43.6177 -5.56205 -14.6761 44.5752 -4.75396 -13.985 45.4644 -3.95038 -13.2895 46.2851 -3.1513 -12.5894 47.0374 -2.35672 -11.8849 47.7214 -1.56665 -11.1759 48.3369 -0.781073 -10.4623 48.8841 -8.40851e-13 -9.74427 49.3628 0.776571 -9.02173 49.7732 1.54864 -8.29468 50.1152 2.31621 -7.56312 50.3887 3.07927 -6.82707 50.5939 3.83784 -6.08651 50.7307 4.5919 -5.34146 50.7991 5.34146 -4.5919 50.7991 6.08651 -3.83784 50.7307 6.82707 -3.07927 50.5939 7.56312 -2.31621 50.3887 8.29468 -1.54864 50.1152 9.02173 -0.776571 49.7732 9.74427 -4.61805e-12 49.3628 10.4623 0.781073 48.8841 11.1759 1.56665 48.3369 11.8849 2.35672 47.7214 12.5894 3.1513 47.0374 13.2895 3.95038 46.2851 13.985 4.75396 45.4644 14.6761 5.56205 44.5752 15.3626 6.37463 43.6177 -7.12627 -14.7315 43.9962 -6.31923 -14.0311 44.9591 -5.51599 -13.3269 45.8531 -4.71656 -12.6189 46.6784 -3.92095 -11.9071 47.4349 -3.12914 -11.1914 48.1226 -2.34114 -10.472 48.7416 -1.55695 -9.74878 49.2918 -0.776571 -9.02173 49.7732 -1.38085e-12 -8.29087 50.1858 0.772762 -7.5562 50.5297 1.54171 -6.81772 50.8048 2.30686 -6.07543 51.0111 3.06819 -5.32934 51.1486 3.82571 -4.57943 51.2174 4.57943 -3.82571 51.21