<?xml version="1.0"?> 
<VTKFile type="StructuredGrid" version="0.1"> 
<StructuredGrid WholeExtent="0 14 0 14 0 29"> 
<Piece Extent="0 14 0 14 0 29"> 
<PointData>
<DataArray type="Float32" Name="efield" format="ascii" NumberOfComponents="3"> 
1.95388 -0.0739227 51.9993 1.9993 0.0337594 48.71 2.04472 0.0954491 45.3091 2.09014 0.126345 41.7964 2.13556 0.13586 38.172 2.18098 0.130134 34.4359 2.2264 0.113344 30.5881 2.27183 0.0884286 26.6286 2.19467 0.0961633 22.6434 2.11752 0.0961085 18.7186 2.04036 0.0890099 14.8541 1.96321 0.0754427 11.05 1.88605 0.055858 7.30633 1.8089 0.0306143 3.62298 1.73174 -3.26803e-16 0 1.81421 -0.202822 54.3658 1.88804 -0.153771 51.2341 1.9577 -0.131854 47.9364 2.02427 -0.12836 44.4727 2.08845 -0.137576 40.843 2.15073 -0.155603 37.0473 2.21143 -0.179693 33.0857 2.27082 -0.207856 28.9581 2.20162 -0.18909 24.758 2.13239 -0.176328 20.579 2.06319 -0.168957 16.4211 1.99408 -0.166491 12.2842 1.92512 -0.168537 8.16839 1.85633 -0.174775 4.07366 1.78774 -0.18494 4.63419e-16 1.68618 -0.343354 56.3682 1.77626 -0.336499 53.3698 1.86047 -0.345153 50.1594 1.94009 -0.36411 46.7372 2.01601 -0.389823 43.1031 2.08885 -0.419798 39.257 2.15906 -0.452235 35.199 2.22698 -0.48581 30.9292 2.16389 -0.459136 26.5473 2.10077 -0.437038 22.1532 2.03773 -0.419038 17.7469 1.97486 -0.404749 13.3285 1.91222 -0.393851 8.89783 1.84988 -0.386082 4.45501 1.78788 -0.381217 8.85911e-16 1.56254 -0.488276 58.0065 1.66128 -0.512868 55.1172 1.75354 -0.545433 51.9783 1.84049 -0.582821 48.59 1.923 -0.622834 44.9522 2.00167 -0.663898 41.0649 2.07698 -0.704867 36.9281 2.14926 -0.744892 32.5419 2.09084 -0.712367 28.0112 2.03245 -0.683291 23.4412 1.97421 -0.657308 18.8317 1.91621 -0.634127 14.1829 1.85854 -0.613508 9.49464 1.80124 -0.595246 4.76702 1.74439 -0.579167 1.22396e-15 1.4393 -0.633603 59.2808 1.54149 -0.682092 56.4763 1.63713 -0.733505 53.393 1.7272 -0.785985 50.0311 1.81244 -0.838219 46.3904 1.89337 -0.889265 42.4711 1.97041 -0.938435 38.273 2.04388 -0.985225 33.7963 1.98912 -0.948199 29.1499 1.93451 -0.913733 24.4429 1.88015 -0.881582 19.6755 1.82612 -0.851542 14.8474 1.77251 -0.823444 9.95883 1.71935 -0.797143 5.00969 1.66672 -0.772513 1.45121e-15 1.31417 -0.777043 60.191 1.41586 -0.843811 57.447 1.51129 -0.910056 54.4035 1.60122 -0.974782 51.0604 1.68619 -1.03729 47.4177 1.76662 -1.09708 43.4754 1.84284 -1.15381 39.2336 1.91511 -1.20721 34.6922 1.86338 -1.16656 29.9632 1.81196 -1.12778 25.1585 1.76094 -1.0907 20.2781 1.71039 -1.05521 15.3221 1.66035 -1.0212 10.2904 1.61088 -0.988567 5.18303 1.562 -0.957243 1.55646e-15 1.18584 -0.917275 60.7371 1.28368 -0.997918 58.0295 1.37593 -1.07567 55.0098 1.46303 -1.15014 51.678 1.54532 -1.22107 48.0341 1.62307 -1.2883 44.0781 1.69648 -1.35172 39.81 1.76576 -1.41125 35.2298 1.71671 -1.36754 30.4512 1.66823 -1.32515 25.5878 1.62035 -1.284 20.6397 1.57311 -1.24403 15.6069 1.52653 -1.20518 10.4893 1.48064 -1.16742 5.28704 1.43545 -1.13069 1.54169e-15 1.05361 -1.05361 60.9192 1.14447 -1.14447 58.2237 1.23082 -1.23082 55.2119 1.31274 -1.31274 51.8839 1.39028 -1.39028 48.2395 1.46355 -1.46355 44.279 1.5326 -1.5326 40.0021 1.59752 -1.59752 35.409 1.55108 -1.55108 30.6138 1.50553 -1.50553 25.7309 1.46085 -1.46085 20.7603 1.41705 -1.41705 15.7018 1.37412 -1.37412 10.5556 1.33203 -1.33203 5.3217 1.29079 -1.29079 1.42016e-15 0.917275 -1.18584 60.7371 0.997918 -1.28368 58.0295 1.07567 -1.37593 55.0098 1.15014 -1.46303 51.678 1.22107 -1.54532 48.0341 1.2883 -1.62307 44.0781 1.35172 -1.69648 39.81 1.41125 -1.76576 35.2298 1.36754 -1.71671 30.4512 1.32515 -1.66823 25.5878 1.284 -1.62035 20.6397 1.24403 -1.57311 15.6069 1.20518 -1.52653 10.4893 1.16742 -1.48064 5.28704 1.13069 -1.43545 1.21437e-15 0.777043 -1.31417 60.191 0.843811 -1.41586 57.447 0.910056 -1.51129 54.4035 0.974782 -1.60122 51.0604 1.03729 -1.68619 47.4177 1.09708 -1.76662 43.4754 1.15381 -1.84284 39.2336 1.20721 -1.91511 34.6922 1.16656 -1.86338 29.9632 1.12778 -1.81196 25.1585 1.0907 -1.76094 20.2781 1.05521 -1.71039 15.3221 1.0212 -1.66035 10.2904 0.988567 -1.61088 5.18303 0.957243 -1.562 9.53847e-16 0.633603 -1.4393 59.2808 0.682092 -1.54149 56.4763 0.733505 -1.63713 53.393 0.785985 -1.7272 50.0311 0.838219 -1.81244 46.3904 0.889265 -1.89337 42.4711 0.938435 -1.97041 38.273 0.985225 -2.04388 33.7963 0.948199 -1.98912 29.1499 0.913733 -1.93451 24.4429 0.881582 -1.88015 19.6755 0.851542 -1.82612 14.8474 0.823444 -1.77251 9.95883 0.797143 -1.71935 5.00969 0.772513 -1.66672 6.72629e-16 0.488276 -1.56254 58.0065 0.512868 -1.66128 55.1172 0.545433 -1.75354 51.9783 0.582821 -1.84049 48.59 0.622834 -1.923 44.9522 0.663898 -2.00167 41.0649 0.704867 -2.07698 36.9281 0.744892 -2.14926 32.5419 0.712367 -2.09084 28.0112 0.683291 -2.03245 23.4412 0.657308 -1.97421 18.8317 0.634127 -1.91621 14.1829 0.613508 -1.85854 9.49464 0.595246 -1.80124 4.76702 0.579167 -1.74439 4.06376e-16 0.343354 -1.68618 56.3682 0.336499 -1.77626 53.3698 0.345153 -1.86047 50.1594 0.36411 -1.94009 46.7372 0.389823 -2.01601 43.1031 0.419798 -2.08885 39.257 0.452235 -2.15906 35.199 0.48581 -2.22698 30.9292 0.459136 -2.16389 26.5473 0.437038 -2.10077 22.1532 0.419038 -2.03773 17.7469 0.404749 -1.97486 13.3285 0.393851 -1.91222 8.89783 0.386082 -1.84988 4.45501 0.381217 -1.78788 1.88897e-16 0.202822 -1.81421 54.3658 0.153771 -1.88804 51.2341 0.131854 -1.9577 47.9364 0.12836 -2.02427 44.4727 0.137576 -2.08845 40.843 0.155603 -2.15073 37.0473 0.179693 -2.21143 33.0857 0.207856 -2.27082 28.9581 0.18909 -2.20162 24.758 0.176328 -2.13239 20.579 0.168957 -2.06319 16.4211 0.166491 -1.99408 12.2842 0.168537 -1.92512 8.16839 0.174775 -1.85633 4.07366 0.18494 -1.78774 4.79402e-17 0.0739227 -1.95388 51.9993 -0.0337594 -1.9993 48.71 -0.0954491 -2.04472 45.3091 -0.126345 -2.09014 41.7964 -0.13586 -2.13556 38.172 -0.130134 -2.18098 34.4359 -0.113344 -2.2264 30.5881 -0.0884286 -2.27183 26.6286 -0.0961633 -2.19467 22.6434 -0.0961085 -2.11752 18.7186 -0.0890099 -2.04036 14.8541 -0.0754427 -1.96321 11.05 -0.055858 -1.88605 7.30633 -0.0306143 -1.8089 3.62298 -1.08934e-16 -1.73174 0 1.88604 -0.0709093 52.0613 1.92954 0.0330932 48.7675 1.97304 0.092713 45.3617 2.01654 0.122612 41.8439 2.06004 0.13187 38.2141 2.10354 0.12641 34.4723 2.14704 0.110261 30.6185 2.19054 0.0862602 26.6527 2.11764 0.0932198 22.6614 2.04473 0.0928026 18.7315 1.97182 0.0857163 14.8627 1.89891 0.0725068 11.0552 1.826 0.0536018 7.30889 1.7531 0.0293416 3.62383 1.68019 -2.11382e-16 0 1.75141 -0.195583 54.4309 1.8223 -0.148086 51.2949 1.88918 -0.126786 47.9925 1.95307 -0.123277 44.5238 2.01466 -0.132048 40.8887 2.07441 -0.149336 37.0872 2.13265 -0.172491 33.1194 2.18962 -0.199591 28.9851 2.1243 -0.18207 24.7787 2.05893 -0.170222 20.5941 1.9936 -0.163465 16.4315 1.92836 -0.161337 12.2908 1.86324 -0.163466 8.17193 1.79829 -0.169548 4.07501 1.73353 -0.179332 4.02879e-16 1.62794 -0.33142 56.4359 1.71451 -0.32459 53.4334 1.79541 -0.332745 50.2186 1.8719 -0.35086 46.7914 1.94481 -0.375511 43.1518 2.01475 -0.404292 39.2998 2.08217 -0.435466 35.2355 2.14737 -0.467754 30.9588 2.08785 -0.442678 26.5702 2.0283 -0.421914 22.1702 1.96881 -0.405008 17.7589 1.90948 -0.391593 13.3363 1.85036 -0.381366 8.9022 1.79152 -0.374076 4.45679 1.73299 -0.369513 7.6988e-16 1.50866 -0.471448 58.0764 1.60359 -0.494927 55.1832 1.69226 -0.52612 52.0399 1.77582 -0.561986 48.6467 1.85509 -0.600403 45.0034 1.93067 -0.639852 41.1101 2.00301 -0.679226 36.9668 2.07243 -0.717706 32.5736 2.01734 -0.687056 28.036 1.96226 -0.659644 23.4598 1.90731 -0.635133 18.845 1.85259 -0.613249 14.1917 1.79815 -0.593762 9.4997 1.74407 -0.57648 4.76914 1.69038 -0.561237 1.06337e-15 1.38975 -0.611836 59.3523 1.48801 -0.658347 56.5441 1.57994 -0.707699 53.4565 1.66652 -0.758099 50.0897 1.74843 -0.80828 46.4435 1.82619 -0.85733 42.5181 1.90022 -0.904588 38.3135 1.9708 -0.949565 33.8295 1.91917 -0.91464 29.176 1.86765 -0.882108 24.4628 1.81636 -0.851738 19.6898 1.76536 -0.823337 14.857 1.71474 -0.796746 9.96441 1.66455 -0.771827 5.01209 1.61483 -0.748462 1.26058e-15 1.26898 -0.750376 60.2637 1.36676 -0.814504 57.5161 1.45851 -0.878145 54.4683 1.54495 -0.940338 51.1204 1.62662 -1.00041 47.4722 1.70391 -1.05787 43.5239 1.77716 -1.11239 39.2753 1.8466 -1.16372 34.7266 1.79781 -1.12537 29.9903 1.7493 -1.08874 25.1792 1.70115 -1.05371 20.2931 1.65341 -1.02014 15.3322 1.60615 -0.987949 10.2964 1.55939 -0.957036 5.18562 1.51319 -0.92733 1.35184e-15 1.1451 -0.885799 60.8105 1.23917 -0.963298 58.0994 1.32786 -1.03802 55.0755 1.41159 -1.10959 51.7388 1.49068 -1.17777 48.0894 1.56541 -1.24239 44.1273 1.63596 -1.30334 39.8525 1.70253 -1.36056 35.2649 1.65627 -1.31931 30.4789 1.61052 -1.27929 25.609 1.56531 -1.2404 20.6552 1.52068 -1.20261 15.6173 1.47665 -1.16585 10.4955 1.43326 -1.13009 5.28974 1.3905 -1.09528 1.33892e-15 1.01744 -1.01744 60.9928 1.10479 -1.10479 58.2938 1.1878 -1.1878 55.2778 1.26653 -1.26653 51.9449 1.34107 -1.34107 48.2952 1.41149 -1.41149 44.3285 1.47785 -1.47785 40.0448 1.54024 -1.54024 35.4443 1.49643 -1.49643 30.6418 1.45343 -1.45343 25.7523 1.41123 -1.41123 20.7758 1.36983 -1.36983 15.7124 1.32922 -1.32922 10.5619 1.2894 -1.2894 5.32445 1.25035 -1.25035 1.23335e-15 0.885799 -1.1451 60.8105 0.963298 -1.23917 58.0994 1.03802 -1.32786 55.0755 1.10959 -1.41159 51.7388 1.17777 -1.49068 48.0894 1.24239 -1.56541 44.1273 1.30334 -1.63596 39.8525 1.36056 -1.70253 35.2649 1.31931 -1.65627 30.4789 1.27929 -1.61052 25.609 1.2404 -1.56531 20.6552 1.20261 -1.52068 15.6173 1.16585 -1.47665 10.4955 1.13009 -1.43326 5.28974 1.09528 -1.3905 1.05465e-15 0.750376 -1.26898 60.2637 0.814504 -1.36676 57.5161 0.878145 -1.45851 54.4683 0.940338 -1.54495 51.1204 1.00041 -1.62662 47.4722 1.05787 -1.70391 43.5239 1.11239 -1.77716 39.2753 1.16372 -1.8466 34.7266 1.12537 -1.79781 29.9903 1.08874 -1.7493 25.1792 1.05371 -1.70115 20.2931 1.02014 -1.65341 15.3322 0.987949 -1.60615 10.2964 0.957036 -1.55939 5.18562 0.92733 -1.51319 8.2845e-16 0.611836 -1.38975 59.3523 0.658347 -1.48801 56.5441 0.707699 -1.57994 53.4565 0.758099 -1.66652 50.0897 0.80828 -1.74843 46.4435 0.85733 -1.82619 42.5181 0.904588 -1.90022 38.3135 0.949565 -1.9708 33.8295 0.91464 -1.91917 29.176 0.882108 -1.86765 24.4628 0.851738 -1.81636 19.6898 0.823337 -1.76536 14.857 0.796746 -1.71474 9.96441 0.771827 -1.66455 5.01209 0.748462 -1.61483 5.84271e-16 0.471448 -1.50866 58.0764 0.494927 -1.60359 55.1832 0.52612 -1.69226 52.0399 0.561986 -1.77582 48.6467 0.600403 -1.85509 45.0034 0.639852 -1.93067 41.1101 0.679226 -2.00301 36.9668 0.717706 -2.07243 32.5736 0.687056 -2.01734 28.036 0.659644 -1.96226 23.4598 0.635133 -1.90731 18.845 0.613249 -1.85259 14.1917 0.593762 -1.79815 9.4997 0.57648 -1.74407 4.76914 0.561237 -1.69038 3.53058e-16 0.33142 -1.62794 56.4359 0.32459 -1.71451 53.4334 0.332745 -1.79541 50.2186 0.35086 -1.8719 46.7914 0.375511 -1.94481 43.1518 0.404292 -2.01475 39.2998 0.435466 -2.08217 35.2355 0.467754 -2.14737 30.9588 0.442678 -2.08785 26.5702 0.421914 -2.0283 22.1702 0.405008 -1.96881 17.7589 0.391593 -1.90948 13.3363 0.381366 -1.85036 8.9022 0.374076 -1.79152 4.45679 0.369513 -1.73299 1.64156e-16 0.195583 -1.75141 54.4309 0.148086 -1.8223 51.2949 0.126786 -1.88918 47.9925 0.123277 -1.95307 44.5238 0.132048 -2.01466 40.8887 0.149336 -2.07441 37.0872 0.172491 -2.13265 33.1194 0.199591 -2.18962 28.9851 0.18207 -2.1243 24.7787 0.170222 -2.05893 20.5941 0.163465 -1.9936 16.4315 0.161337 -1.92836 12.2908 0.163466 -1.86324 8.17193 0.169548 -1.79829 4.07501 0.179332 -1.73353 4.16774e-17 0.0709093 -1.88604 52.0613 -0.0330932 -1.92954 48.7675 -0.092713 -1.97304 45.3617 -0.122612 -2.01654 41.8439 -0.13187 -2.06004 38.2141 -0.12641 -2.10354 34.4723 -0.110261 -2.14704 30.6185 -0.0862602 -2.19054 26.6527 -0.0932198 -2.11764 22.6614 -0.0928026 -2.04473 18.7315 -0.0857163 -1.97182 14.8627 -0.0725068 -1.89891 11.0552 -0.0536018 -1.826 7.30889 -0.0293416 -1.7531 3.62383 -2.11382e-16 -1.68019 0 1.81821 -0.0679289 52.1233 1.85984 0.0323779 48.825 1.90147 0.0899132 45.4144 1.9431 0.118802 41.8915 1.98473 0.127793 38.2562 2.02635 0.122591 34.5087 2.06798 0.107079 30.6489 2.10961 0.0839877 26.6767 2.04077 0.0902335 22.6795 1.97194 0.0894977 18.7443 1.9031 0.0824512 14.8713 1.83426 0.069612 11.0603 1.76542 0.0513858 7.31145 1.69659 0.0280952 3.62468 1.62775 -4.0957e-16 0 1.6886 -0.188355 54.496 1.7566 -0.142436 51.3557 1.82074 -0.121774 48.0487 1.88201 -0.118269 44.5749 1.94106 -0.126612 40.9344 1.99834 -0.143176 37.1271 2.05416 -0.165407 33.153 2.10876 -0.191453 29.0122 2.04714 -0.175107 24.7994 1.98549 -0.164119 20.6093 1.92386 -0.157934 16.4419 1.86231 -0.156117 12.2973 1.80088 -0.158312 8.17548 1.73961 -0.164233 4.07637 1.67851 -0.17364 3.45082e-16 1.56968 -0.319479 56.5036 1.65278 -0.312706 53.4971 1.73044 -0.320388 50.2777 1.80383 -0.337685 46.8455 1.87379 -0.361297 43.2005 1.94089 -0.388903 39.3426 2.00555 -0.41883 35.2719 2.06809 -0.449846 30.9884 2.01199 -0.426292 26.5931 1.95585 -0.406798 22.1873 1.89976 -0.390934 17.7709 1.84382 -0.37835 13.344 1.78807 -0.368762 8.90658 1.73258 -0.36193 4.45856 1.67738 -0.357656 6.59193e-16 1.45476 -0.454602 58.1463 1.54592 -0.477004 55.2492 1.63105 -0.506857 52.1015 1.71127 -0.54123 48.7033 1.78735 -0.578077 45.0546 1.85989 -0.615934 41.1553 1.9293 -0.653735 37.0055 1.99591 -0.690688 32.6052 1.944 -0.661829 28.0607 1.8921 -0.636009 23.4784 1.8403 -0.612908 18.8583 1.78871 -0.592266 14.2004 1.73737 -0.573867 9.50475 1.68636 -0.557526 4.77127 1.63573 -0.54309 9.10259e-16 1.34016 -0.590042 59.4239 1.43453 -0.634614 56.6119 1.52282 -0.681941 53.52 1.60594 -0.730294 50.1483 1.68457 -0.778451 46.4967 1.75922 -0.825535 42.5652 1.83027 -0.870906 38.3539 1.89801 -0.914093 33.8628 1.84937 -0.881178 29.2022 1.80082 -0.850499 24.4826 1.75246 -0.821837 19.704 1.70438 -0.795011 14.8665 1.65663 -0.769869 9.96999 1.60927 -0.746281 5.01449 1.56234 -0.724136 1.07889e-15 1.22376 -0.723676 60.3364 1.31766 -0.785206 57.5852 1.40577 -0.846282 54.5332 1.48878 -0.905978 51.1804 1.56719 -0.963642 47.5267 1.6414 -1.01881 43.5723 1.71171 -1.07115 39.3171 1.77836 -1.12044 34.761 1.73239 -1.08428 30.0175 1.68667 -1.04973 25.1999 1.64126 -1.01665 20.3081 1.59623 -0.984941 15.3423 1.55162 -0.954495 10.3023 1.50749 -0.925235 5.18821 1.46385 -0.897091 1.15686e-15 1.10433 -0.854286 60.884 1.19467 -0.928686 58.1692 1.27984 -1.00042 55.1411 1.36024 -1.06914 51.7996 1.43619 -1.1346 48.1448 1.50793 -1.19664 44.1765 1.57566 -1.25515 39.8949 1.63957 -1.31009 35.3 1.59597 -1.27121 30.5067 1.55283 -1.23345 25.6303 1.51018 -1.19674 20.6706 1.46806 -1.16104 15.6277 1.42649 -1.12629 10.5017 1.38549 -1.09245 5.29245 1.34508 -1.0595 1.14573e-15 0.981236 -0.981236 61.0665 1.06511 -1.06511 58.3639 1.14482 -1.14482 55.3437 1.22042 -1.22042 52.006 1.29199 -1.29199 48.3508 1.3596 -1.3596 44.3779 1.42332 -1.42332 40.0876 1.48321 -1.48321 35.4796 1.44191 -1.44191 30.6698 1.40135 -1.40135 25.7737 1.36153 -1.36153 20.7914 1.32244 -1.32244 15.7229 1.28407 -1.28407 10.5682 1.24642 -1.24642 5.32719 1.20947 -1.20947 1.05537e-15 0.854286 -1.10433 60.884 0.928686 -1.19467 58.1692 1.00042 -1.27984 55.1411 1.06914 -1.36024 51.7996 1.1346 -1.43619 48.1448 1.19664 -1.50793 44.1765 1.25515 -1.57566 39.8949 1.31009 -1.63957 35.3 1.27121 -1.59597 30.5067 1.23345 -1.55283 25.6303 1.19674 -1.51018 20.6706 1.16104 -1.46806 15.6277 1.12629 -1.42649 10.5017 1.09245 -1.38549 5.29245 1.0595 -1.34508 9.02483e-16 0.723676 -1.22376 60.3364 0.785206 -1.31766 57.5852 0.846282 -1.40577 54.5332 0.905978 -1.48878 51.1804 0.963642 -1.56719 47.5267 1.01881 -1.6414 43.5723 1.07115 -1.71171 39.3171 1.12044 -1.77836 34.761 1.08428 -1.73239 30.0175 1.04973 -1.68667 25.1999 1.01665 -1.64126 20.3081 0.984941 -1.59623 15.3423 0.954495 -1.55162 10.3023 0.925235 -1.50749 5.18821 0.897091 -1.46385 7.08961e-16 0.590042 -1.34016 59.4239 0.634614 -1.43453 56.6119 0.681941 -1.52282 53.52 0.730294 -1.60594 50.1483 0.778451 -1.68457 46.4967 0.825535 -1.75922 42.5652 0.870906 -1.83027 38.3539 0.914093 -1.89801 33.8628 0.881178 -1.84937 29.2022 0.850499 -1.80082 24.4826 0.821837 -1.75246 19.704 0.795011 -1.70438 14.8665 0.769869 -1.65663 9.96999 0.746281 -1.60927 5.01449 0.724136 -1.56234 5.00057e-16 0.454602 -1.45476 58.1463 0.477004 -1.54592 55.2492 0.506857 -1.63105 52.1015 0.54123 -1.71127 48.7033 0.578077 -1.78735 45.0546 0.615934 -1.85989 41.1553 0.653735 -1.9293 37.0055 0.690688 -1.99591 32.6052 0.661829 -1.944 28.0607 0.636009 -1.8921 23.4784 0.612908 -1.8403 18.8583 0.592266 -1.78871 14.2004 0.573867 -1.73737 9.50475 0.557526 -1.68636 4.77127 0.54309 -1.63573 3.02222e-16 0.319479 -1.56968 56.5036 0.312706 -1.65278 53.4971 0.320388 -1.73044 50.2777 0.337685 -1.80383 46.8455 0.361297 -1.87379 43.2005 0.388903 -1.94089 39.3426 0.41883 -2.00555 35.2719 0.449846 -2.06809 30.9884 0.426292 -2.01199 26.5931 0.406798 -1.95585 22.1873 0.390934 -1.89976 17.7709 0.37835 -1.84382 13.344 0.368762 -1.78807 8.90658 0.36193 -1.73258 4.45856 0.357656 -1.67738 1.40555e-16 0.188355 -1.6886 54.496 0.142436 -1.7566 51.3557 0.121774 -1.82074 48.0487 0.118269 -1.88201 44.5749 0.126612 -1.94106 40.9344 0.143176 -1.99834 37.1271 0.165407 -2.05416 33.153 0.191453 -2.10876 29.0122 0.175107 -2.04714 24.7994 0.164119 -1.98549 20.6093 0.157934 -1.92386 16.4419 0.156117 -1.86231 12.2973 0.158312 -1.80088 8.17548 0.164233 -1.73961 4.07637 0.17364 -1.67851 3.56984e-17 0.0679289 -1.81821 52.1233 -0.0323779 -1.85984 48.825 -0.0899132 -1.90147 45.4144 -0.118802 -1.9431 41.8915 -0.127793 -1.98473 38.2562 -0.122591 -2.02635 34.5087 -0.107079 -2.06798 30.6489 -0.0839877 -2.10961 26.6767 -0.0902335 -2.04077 22.6795 -0.0894977 -1.97194 18.7443 -0.0824512 -1.9031 14.8713 -0.069612 -1.83426 11.0603 -0.0513858 -1.76542 7.31145 -0.0280952 -1.69659 3.62468 1.02392e-16 -1.62775 0 1.7504 -0.0649815 52.1853 1.7902 0.0316133 48.8825 1.83001 0.08705 45.4671 1.86981 0.114917 41.939 1.90962 0.12363 38.2984 1.94942 0.118678 34.5451 1.98923 0.103796 30.6793 2.02903 0.0816111 26.7008 1.96409 0.0872046 22.6975 1.89914 0.0861937 18.7572 1.8342 0.0792146 14.8799 1.76926 0.0667584 11.0655 1.70431 0.0492099 7.31401 1.63937 0.026875 3.62553 1.57443 -2.97115e-16 0 1.62578 -0.181137 54.5611 1.69095 -0.136821 51.4166 1.7524 -0.116819 48.1049 1.81109 -0.113338 44.6261 1.86765 -0.121269 40.9801 1.9225 -0.137122 37.167 1.97596 -0.15844 33.1867 2.02824 -0.183442 29.0393 1.97017 -0.168202 24.82 1.91206 -0.158018 20.6244 1.85397 -0.152366 16.4524 1.79596 -0.15083 12.3039 1.73805 -0.153076 8.17902 1.68029 -0.15883 4.07772 1.6227 -0.167866 2.90093e-16 1.5114 -0.307533 56.5714 1.59109 -0.300846 53.5608 1.66554 -0.308084 50.3369 1.73589 -0.324588 46.8997 1.80294 -0.347181 43.2492 1.86724 -0.373632 39.3854 1.9292 -0.402329 35.3083 1.98913 -0.432086 31.0179 1.93629 -0.409977 26.616 1.88341 -0.391689 22.2043 1.83058 -0.376814 17.7829 1.77788 -0.365021 13.3518 1.72536 -0.356039 8.91095 1.67306 -0.349643 4.46034 1.62104 -0.345644 5.5396e-16 1.40083 -0.437739 58.2161 1.48827 -0.459098 55.3151 1.56992 -0.487643 52.1631 1.64683 -0.520552 48.76 1.71978 -0.555855 45.1058 1.78932 -0.592145 41.2006 1.85585 -0.628393 37.0442 1.91969 -0.663838 32.6369 1.87083 -0.636687 28.0854 1.82196 -0.612386 23.497 1.77318 -0.590632 18.8716 1.72457 -0.571179 14.2092 1.67621 -0.553821 9.5098 1.62814 -0.538386 4.7734 1.58042 -0.524726 7.64766e-16 1.29054 -0.568221 59.4954 1.38107 -0.610893 56.6796 1.46575 -0.656231 53.5835 1.54547 -0.70257 50.2069 1.62088 -0.748735 46.5498 1.69246 -0.793879 42.6123 1.76057 -0.837388 38.3944 1.82551 -0.878809 33.896 1.77973 -0.847813 29.2283 1.73401 -0.818906 24.5024 1.68847 -0.791881 19.7183 1.64317 -0.766564 14.8761 1.59817 -0.742813 9.97557 1.55352 -0.720506 5.01688 1.50927 -0.699538 9.06293e-16 1.17849 -0.696945 60.4091 1.26858 -0.755917 57.6543 1.3531 -0.814467 54.598 1.43271 -0.871701 51.2403 1.50791 -0.926994 47.5812 1.57907 -0.979898 43.6207 1.64649 -1.03009 39.3588 1.7104 -1.07736 34.7954 1.66713 -1.0433 30.0447 1.62407 -1.01073 25.2206 1.58128 -0.979537 20.3232 1.53884 -0.949601 15.3524 1.49678 -0.920836 10.3083 1.45515 -0.893166 5.1908 1.41397 -0.866525 9.71693e-16 1.06351 -0.822737 60.9574 1.15018 -0.894081 58.2391 1.23187 -0.962874 55.2068 1.30899 -1.02877 51.8604 1.38183 -1.09155 48.2001 1.45063 -1.15104 44.2258 1.51559 -1.20716 39.9374 1.57686 -1.25984 35.3351 1.53581 -1.22322 30.5345 1.49517 -1.18763 25.6515 1.45498 -1.15301 20.686 1.41526 -1.11931 15.6382 1.37604 -1.08649 10.5079 1.33733 -1.05451 5.29516 1.29917 -1.02334 9.62288e-16 0.944989 -0.944989 61.1401 1.02544 -1.02544 58.434 1.10189 -1.10189 55.4097 1.1744 -1.1744 52.0671 1.24304 -1.24304 48.4064 1.30788 -1.30788 44.4274 1.36898 -1.36898 40.1303 1.42642 -1.42642 35.5149 1.38753 -1.38753 30.6977 1.34931 -1.34931 25.7951 1.31176 -1.31176 20.807 1.27488 -1.27488 15.7334 1.23866 -1.23866 10.5744 1.20309 -1.20309 5.32994 1.16817 -1.16817 8.86377e-16 0.822737 -1.06351 60.9574 0.894081 -1.15018 58.2391 0.962874 -1.23187 55.2068 1.02877 -1.30899 51.8604 1.09155 -1.38183 48.2001 1.15104 -1.45063 44.2258 1.20716 -1.51559 39.9374 1.25984 -1.57686 35.3351 1.22322 -1.53581 30.5345 1.18763 -1.49517 25.6515 1.15301 -1.45498 20.686 1.11931 -1.41526 15.6382 1.08649 -1.37604 10.5079 1.05451 -1.33733 5.29516 1.02334 -1.29917 7.57984e-16 0.696945 -1.17849 60.4091 0.755917 -1.26858 57.6543 0.814467 -1.3531 54.598 0.871701 -1.43271 51.2403 0.926994 -1.50791 47.5812 0.979898 -1.57907 43.6207 1.03009 -1.64649 39.3588 1.07736 -1.7104 34.7954 1.0433 -1.66713 30.0447 1.01073 -1.62407 25.2206 0.979537 -1.58128 20.3232 0.949601 -1.53884 15.3524 0.920836 -1.49678 10.3083 0.893166 -1.45515 5.1908 0.866525 -1.41397 5.95483e-16 0.568221 -1.29054 59.4954 0.610893 -1.38107 56.6796 0.656231 -1.46575 53.5835 0.70257 -1.54547 50.2069 0.748735 -1.62088 46.5498 0.793879 -1.69246 42.6123 0.837388 -1.76057 38.3944 0.878809 -1.82551 33.896 0.847813 -1.77973 29.2283 0.818906 -1.73401 24.5024 0.791881 -1.68847 19.7183 0.766564 -1.64317 14.8761 0.742813 -1.59817 9.97557 0.720506 -1.55352 5.01688 0.699538 -1.50927 4.20061e-16 0.437739 -1.40083 58.2161 0.459098 -1.48827 55.3151 0.487643 -1.56992 52.1631 0.520552 -1.64683 48.76 0.555855 -1.71978 45.1058 0.592145 -1.78932 41.2006 0.628393 -1.85585 37.0442 0.663838 -1.91969 32.6369 0.636687 -1.87083 28.0854 0.612386 -1.82196 23.497 0.590632 -1.77318 18.8716 0.571179 -1.72457 14.2092 0.553821 -1.67621 9.5098 0.538386 -1.62814 4.7734 0.524726 -1.58042 2.53916e-16 0.307533 -1.5114 56.5714 0.300846 -1.59109 53.5608 0.308084 -1.66554 50.3369 0.324588 -1.73589 46.8997 0.347181 -1.80294 43.2492 0.373632 -1.86724 39.3854 0.402329 -1.9292 35.3083 0.432086 -1.98913 31.0179 0.409977 -1.93629 26.616 0.391689 -1.88341 22.2043 0.376814 -1.83058 17.7829 0.365021 -1.77788 13.3518 0.356039 -1.72536 8.91095 0.349643 -1.67306 4.46034 0.345644 -1.62104 1.18117e-16 0.181137 -1.62578 54.5611 0.136821 -1.69095 51.4166 0.116819 -1.7524 48.1049 0.113338 -1.81109 44.6261 0.121269 -1.86765 40.9801 0.137122 -1.9225 37.167 0.15844 -1.97596 33.1867 0.183442 -2.02824 29.0393 0.168202 -1.97017 24.82 0.158018 -1.91206 20.6244 0.152366 -1.85397 16.4524 0.15083 -1.79596 12.3039 0.153076 -1.73805 8.17902 0.15883 -1.68029 4.07772 0.167866 -1.6227 3.00099e-17 0.0649815 -1.7504 52.1853 -0.0316133 -1.7902 48.8825 -0.08705 -1.83001 45.4671 -0.114917 -1.86981 41.939 -0.12363 -1.90962 38.2984 -0.118678 -1.94942 34.5451 -0.103796 -1.98923 30.6793 -0.0816111 -2.02903 26.7008 -0.0872046 -1.96409 22.6975 -0.0861937 -1.89914 18.7572 -0.0792146 -1.8342 14.8799 -0.0667584 -1.76926 11.0655 -0.0492099 -1.70431 7.31401 -0.026875 -1.63937 3.62553 -9.90382e-17 -1.57443 0 1.6826 -0.0620672 52.2473 1.72063 0.0307995 48.94 1.75865 0.0841232 45.5197 1.79668 0.110956 41.9865 1.83471 0.119381 38.3405 1.87274 0.114671 34.5815 1.91077 0.100413 30.7096 1.9488 0.0791304 26.7249 1.88758 0.084133 22.7156 1.82635 0.0828906 18.7701 1.76512 0.0760065 14.8884 1.7039 0.0639461 11.0706 1.64267 0.0470742 7.31658 1.58144 0.0256811 3.62638 1.52022 0 0 1.56295 -0.173929 54.6262 1.62534 -0.13124 51.4774 1.68415 -0.11192 48.1611 1.74031 -0.108482 44.6772 1.79443 -0.116018 41.0258 1.8469 -0.131175 37.2068 1.89804 -0.151592 33.2203 1.94805 -0.175557 29.0663 1.89337 -0.161354 24.8407 1.83864 -0.151921 20.6396 1.78393 -0.14676 16.4628 1.72929 -0.145478 12.3105 1.67475 -0.147758 8.18256 1.62034 -0.15334 4.07907 1.56608 -0.16201 2.37977e-16 1.4531 -0.29558 56.6391 1.52943 -0.289011 53.6245 1.60072 -0.295832 50.3961 1.66809 -0.311567 46.9539 1.73228 -0.333164 43.298 1.79383 -0.358478 39.4282 1.85313 -0.385962 35.3448 1.91049 -0.414475 31.0475 1.86077 -0.393733 26.6389 1.811 -0.376587 22.2214 1.76127 -0.362649 17.795 1.71166 -0.351604 13.3596 1.66221 -0.343198 8.91532 1.61297 -0.337216 4.46212 1.56399 -0.333478 4.54293e-16 1.34687 -0.420858 58.286 1.43064 -0.44121 55.3811 1.50885 -0.468479 52.2247 1.58252 -0.499952 48.8167 1.65238 -0.533739 45.157 1.71896 -0.568484 41.2458 1.78266 -0.603201 37.0829 1.84379 -0.637157 32.6685 1.79782 -0.61163 28.1102 1.75184 -0.588775 23.5156 1.70594 -0.568304 18.8849 1.66019 -0.549986 14.218 1.61466 -0.533625 9.51485 1.5694 -0.519058 4.77552 1.52446 -0.506146 6.27033e-16 1.24089 -0.546375 59.5669 1.32763 -0.587185 56.7474 1.40875 -0.630569 53.647 1.48512 -0.674927 50.2655 1.55734 -0.719129 46.6029 1.62589 -0.762362 42.6594 1.69112 -0.804035 38.4348 1.75331 -0.843712 33.9293 1.71024 -0.814547 29.2545 1.66724 -0.787331 24.5223 1.62437 -0.761868 19.7326 1.58173 -0.737996 14.8856 1.53935 -0.715578 9.98115 1.4973 -0.694501 5.01928 1.45561 -0.674665 7.42959e-16 1.13319 -0.67018 60.4819 1.21951 -0.726637 57.7234 1.30048 -0.782699 54.6629 1.37675 -0.837509 51.3003 1.44878 -0.890464 47.6358 1.51694 -0.941134 43.6691 1.58151 -0.989214 39.4005 1.64271 -1.03449 34.8298 1.60201 -1.00243 30.0718 1.56149 -0.971762 25.2413 1.52122 -0.942359 20.3382 1.48125 -0.914123 15.3625 1.44163 -0.88697 10.3142 1.40239 -0.860827 5.19339 1.36356 -0.835633 7.96494e-16 1.02266 -0.791152 61.0308 1.10569 -0.859482 58.3089 1.18396 -0.925373 55.2724 1.25784 -0.988494 51.9212 1.32761 -1.04862 48.2554 1.39351 -1.10561 44.275 1.45573 -1.15936 39.9799 1.51441 -1.20982 35.3701 1.4758 -1.17535 30.5623 1.43755 -1.14184 25.6727 1.39969 -1.10922 20.7015 1.36227 -1.07744 15.6486 1.3253 -1.04647 10.5141 1.2888 -1.01626 5.29786 1.25278 -0.986803 7.8874e-16 0.908704 -0.908704 61.2138 0.985778 -0.985778 58.5041 1.05901 -1.05901 55.4756 1.12847 -1.12847 52.1282 1.19423 -1.19423 48.462 1.25633 -1.25633 44.4769 1.31486 -1.31486 40.173 1.36987 -1.36987 35.5503 1.33327 -1.33327 30.7257 1.29729 -1.29729 25.8165 1.26192 -1.26192 20.8226 1.22715 -1.22715 15.744 1.19299 -1.19299 10.5807 1.15942 -1.15942 5.33269 1.12644 -1.12644 7.26507e-16 0.791152 -1.02266 61.0308 0.859482 -1.10569 58.3089 0.925373 -1.18396 55.2724 0.988494 -1.25784 51.9212 1.04862 -1.32761 48.2554 1.10561 -1.39351 44.275 1.15936 -1.45573 39.9799 1.20982 -1.51441 35.3701 1.17535 -1.4758 30.5623 1.14184 -1.43755 25.6727 1.10922 -1.39969 20.7015 1.07744 -1.36227 15.6486 1.04647 -1.3253 10.5141 1.01626 -1.2888 5.29786 0.986803 -1.25278 6.21282e-16 0.67018 -1.13319 60.4819 0.726637 -1.21951 57.7234 0.782699 -1.30048 54.6629 0.837509 -1.37675 51.3003 0.890464 -1.44878 47.6358 0.941134 -1.51694 43.6691 0.989214 -1.58151 39.4005 1.03449 -1.64271 34.8298 1.00243 -1.60201 30.0718 0.971762 -1.56149 25.2413 0.942359 -1.52122 20.3382 0.914123 -1.48125 15.3625 0.88697 -1.44163 10.3142 0.860827 -1.40239 5.19339 0.835633 -1.36356 4.88116e-16 0.546375 -1.24089 59.5669 0.587185 -1.32763 56.7474 0.630569 -1.40875 53.647 0.674927 -1.48512 50.2655 0.719129 -1.55734 46.6029 0.762362 -1.62589 42.6594 0.804035 -1.69112 38.4348 0.843712 -1.75331 33.9293 0.814547 -1.71024 29.2545 0.787331 -1.66724 24.5223 0.761868 -1.62437 19.7326 0.737996 -1.58173 14.8856 0.715578 -1.53935 9.98115 0.694501 -1.4973 5.01928 0.674665 -1.45561 3.44357e-16 0.420858 -1.34687 58.286 0.44121 -1.43064 55.3811 0.468479 -1.50885 52.2247 0.499952 -1.58252 48.8167 0.533739 -1.65238 45.157 0.568484 -1.71896 41.2458 0.603201 -1.78266 37.0829 0.637157 -1.84379 32.6685 0.61163 -1.79782 28.1102 0.588775 -1.75184 23.5156 0.568304 -1.70594 18.8849 0.549986 -1.66019 14.218 0.533625 -1.61466 9.51485 0.519058 -1.5694 4.77552 0.506146 -1.52446 2.08186e-16 0.29558 -1.4531 56.6391 0.289011 -1.52943 53.6245 0.295832 -1.60072 50.3961 0.311567 -1.66809 46.9539 0.333164 -1.73228 43.298 0.358478 -1.79383 39.4282 0.385962 -1.85313 35.3448 0.414475 -1.91049 31.0475 0.393733 -1.86077 26.6389 0.376587 -1.811 22.2214 0.362649 -1.76127 17.795 0.351604 -1.71166 13.3596 0.343198 -1.66221 8.91532 0.337216 -1.61297 4.46212 0.333478 -1.56399 9.68657e-17 0.173929 -1.56295 54.6262 0.13124 -1.62534 51.4774 0.11192 -1.68415 48.1611 0.108482 -1.74031 44.6772 0.116018 -1.79443 41.0258 0.131175 -1.8469 37.2068 0.151592 -1.89804 33.2203 0.175557 -1.94805 29.0663 0.161354 -1.89337 24.8407 0.151921 -1.83864 20.6396 0.14676 -1.78393 16.4628 0.145478 -1.72929 12.3105 0.147758 -1.67475 8.18256 0.15334 -1.62034 4.07907 0.16201 -1.56608 2.46184e-17 0.0620672 -1.6826 52.2473 -0.0307995 -1.72063 48.94 -0.0841232 -1.75865 45.5197 -0.110956 -1.79668 41.9865 -0.119381 -1.83471 38.3405 -0.114671 -1.87274 34.5815 -0.100413 -1.91077 30.7096 -0.0791304 -1.9488 26.7249 -0.084133 -1.88758 22.7156 -0.0828906 -1.82635 18.7701 -0.0760065 -1.76512 14.8884 -0.0639461 -1.7039 11.0706 -0.0470742 -1.64267 7.31658 -0.0256811 -1.58144 3.62638 -2.86885e-16 -1.52022 0 1.61481 -0.0591859 52.3094 1.65111 0.0299365 48.9975 1.68741 0.0811329 45.5724 1.72371 0.106919 42.0341 1.76002 0.115046 38.3826 1.79632 0.110569 34.6179 1.83262 0.0969289 30.74 1.86893 0.0765457 26.749 1.81124 0.0810188 22.7336 1.75355 0.0795885 18.783 1.69587 0.0728268 14.897 1.63818 0.0611749 11.0757 1.5805 0.0449788 7.31914 1.52281 0.0245134 3.62723 1.46513 -1.84326e-16 0 1.50012 -0.166732 54.6913 1.55977 -0.125695 51.5382 1.61599 -0.107078 48.2172 1.66968 -0.103703 44.7283 1.7214 -0.110859 41.0715 1.77155 -0.125333 37.2467 1.82042 -0.144861 33.254 1.86821 -0.167799 29.0934 1.81674 -0.154563 24.8614 1.76523 -0.145826 20.6547 1.71374 -0.141116 16.4732 1.6623 -0.14006 12.317 1.61096 -0.142357 8.18611 1.55974 -0.147762 4.08042 1.50867 -0.156071 1.88796e-16 1.39478 -0.283621 56.7068 1.46