<?xml version="1.0"?> 
<VTKFile type="StructuredGrid" version="0.1"> 
<StructuredGrid WholeExtent="0 14 0 14 0 29"> 
<Piece Extent="0 14 0 14 0 29"> 
<PointData>
<DataArray type="Float32" Name="efield" format="ascii" NumberOfComponents="3"> 
8.41354e-11 -27.2181 3.53439 2.15187 -25.4816 3.73978 4.27178 -23.7132 3.91358 6.35973 -21.9129 4.05577 8.41573 -20.0806 4.16636 10.4398 -18.2164 4.24536 12.4319 -16.3201 4.29276 14.392 -14.392 4.30856 16.3201 -12.4319 4.29276 18.2164 -10.4398 4.24536 20.0806 -8.41573 4.16636 21.9129 -6.35973 4.05577 23.7132 -4.27178 3.91358 25.4816 -2.15187 3.73978 27.2181 -1.68932e-10 3.53439 -2.15187 -25.4816 3.73978 8.74522e-11 -23.6859 3.84628 2.12448 -21.8627 3.9364 4.22156 -20.0121 4.01013 6.29125 -18.1342 4.06747 8.33355 -16.2288 4.10843 10.3485 -14.2961 4.13301 12.336 -12.336 4.1412 14.2961 -10.3485 4.13301 16.2288 -8.33355 4.10843 18.1342 -6.29125 4.06747 20.0121 -4.22156 4.01013 21.8627 -2.12448 3.9364 23.6859 -1.77166e-10 3.84628 25.4816 2.15187 3.73978 -4.27178 -23.7132 3.91358 -2.12448 -21.8627 3.9364 9.03022e-11 -19.9893 3.95571 2.10165 -18.0931 3.97151 4.18047 -16.1741 3.98379 6.23647 -14.2322 3.99257 8.26964 -12.2675 3.99784 10.28 -10.28 3.99959 12.2675 -8.26964 3.99784 14.2322 -6.23647 3.99257 16.1741 -4.18047 3.98379 18.0931 -2.10165 3.97151 19.9893 -1.83135e-10 3.95571 21.8627 2.12448 3.9364 23.7132 4.27178 3.91358 -6.35973 -21.9129 4.05577 -4.22156 -20.0121 4.01013 -2.10165 -18.0931 3.97151 9.26391e-11 -16.1558 3.93991 2.08339 -14.2002 3.91533 4.14852 -12.2264 3.89778 6.19538 -10.2343 3.88724 8.22399 -8.22399 3.88373 10.2343 -6.19538 3.88724 12.2264 -4.14852 3.89778 14.2002 -2.08339 3.91533 16.1558 -1.86778e-10 3.93991 18.0931 2.10165 3.97151 20.0121 4.22156 4.01013 21.9129 6.35973 4.05577 -8.41573 -20.0806 4.16636 -6.29125 -18.1342 4.06747 -4.18047 -16.1741 3.98379 -2.08339 -14.2002 3.91533 9.44466e-11 -12.2127 3.86208 2.06969 -10.2115 3.82405 4.12569 -8.1966 3.80122 6.16799 -6.16799 3.79362 8.1966 -4.12569 3.80122 10.2115 -2.06969 3.82405 12.2127 -1.88048e-10 3.86208 14.2002 2.08339 3.91533 16.1741 4.18047 3.98379 18.1342 6.29125 4.06747 20.0806 8.41573 4.16636 -10.4398 -18.2164 4.24536 -8.33355 -16.2288 4.10843 -6.23647 -14.2322 3.99257 -4.14852 -12.2264 3.89778 -2.06969 -10.2115 3.82405 9.56909e-11 -8.18747 3.77138 2.06056 -6.15429 3.73978 4.11199 -4.11199 3.72925 6.15429 -2.06056 3.73978 8.18747 -1.86898e-10 3.77138 10.2115 2.06969 3.82405 12.2264 4.14852 3.89778 14.2322 6.23647 3.99257 16.2288 8.33355 4.10843 18.2164 10.4398 4.24536 -12.4319 -16.3201 4.29276 -10.3485 -14.2961 4.13301 -8.26964 -12.2675 3.99784 -6.19538 -10.2343 3.88724 -4.12569 -8.1966 3.80122 -2.06056 -6.15429 3.73978 9.6348e-11 -4.10743 3.70292 2.056 -2.056 3.69063 4.10743 -1.83281e-10 3.70292 6.15429 2.06056 3.73978 8.1966 4.12569 3.80122 10.2343 6.19538 3.88724 12.2675 8.26964 3.99784 14.2961 10.3485 4.13301 16.3201 12.4319 4.29276 -14.392 -14.392 4.30856 -12.336 -12.336 4.1412 -10.28 -10.28 3.99959 -8.22399 -8.22399 3.88373 -6.16799 -6.16799 3.79362 -4.11199 -4.11199 3.72925 -2.056 -2.056 3.69063 9.63888e-11 -1.77137e-10 3.67775 2.056 2.056 3.69063 4.11199 4.11199 3.72925 6.16799 6.16799 3.79362 8.22399 8.22399 3.88373 10.28 10.28 3.99959 12.336 12.336 4.1412 14.392 14.392 4.30856 -16.3201 -12.4319 4.29276 -14.2961 -10.3485 4.13301 -12.2675 -8.26964 3.99784 -10.2343 -6.19538 3.88724 -8.1966 -4.12569 3.80122 -6.15429 -2.06056 3.73978 -4.10743 -1.80524e-10 3.70292 -2.056 2.056 3.69063 9.55459e-11 4.10743 3.70292 2.06056 6.15429 3.73978 4.12569 8.1966 3.80122 6.19538 10.2343 3.88724 8.26964 12.2675 3.99784 10.3485 14.2961 4.13301 12.4319 16.3201 4.29276 -18.2164 -10.4398 4.24536 -16.2288 -8.33355 4.10843 -14.2322 -6.23647 3.99257 -12.2264 -4.14852 3.89778 -10.2115 -2.06969 3.82405 -8.18747 -1.81754e-10 3.77138 -6.15429 2.06056 3.73978 -4.11199 4.11199 3.72925 -2.06056 6.15429 3.73978 9.36622e-11 8.18747 3.77138 2.06969 10.2115 3.82405 4.14852 12.2264 3.89778 6.23647 14.2322 3.99257 8.33355 16.2288 4.10843 10.4398 18.2164 4.24536 -20.0806 -8.41573 4.16636 -18.1342 -6.29125 4.06747 -16.1741 -4.18047 3.98379 -14.2002 -2.08339 3.91533 -12.2127 -1.80891e-10 3.86208 -10.2115 2.06969 3.82405 -8.1966 4.12569 3.80122 -6.16799 6.16799 3.79362 -4.12569 8.1966 3.80122 -2.06969 10.2115 3.82405 9.07179e-11 12.2127 3.86208 2.08339 14.2002 3.91533 4.18047 16.1741 3.98379 6.29125 18.1342 4.06747 8.41573 20.0806 4.16636 -21.9129 -6.35973 4.05577 -20.0121 -4.22156 4.01013 -18.0931 -2.10165 3.97151 -16.1558 -1.77979e-10 3.93991 -14.2002 2.08339 3.91533 -12.2264 4.14852 3.89778 -10.2343 6.19538 3.88724 -8.22399 8.22399 3.88373 -6.19538 10.2343 3.88724 -4.14852 12.2264 3.89778 -2.08339 14.2002 3.91533 8.66889e-11 16.1558 3.93991 2.10165 18.0931 3.97151 4.22156 20.0121 4.01013 6.35973 21.9129 4.05577 -23.7132 -4.27178 3.91358 -21.8627 -2.12448 3.9364 -19.9893 -1.73055e-10 3.95571 -18.0931 2.10165 3.97151 -16.1741 4.18047 3.98379 -14.2322 6.23647 3.99257 -12.2675 8.26964 3.99784 -10.28 10.28 3.99959 -8.26964 12.2675 3.99784 -6.23647 14.2322 3.99257 -4.18047 16.1741 3.98379 -2.10165 18.0931 3.97151 8.15445e-11 19.9893 3.95571 2.12448 21.8627 3.9364 4.27178 23.7132 3.91358 -25.4816 -2.15187 3.73978 -23.6859 -1.66183e-10 3.84628 -21.8627 2.12448 3.9364 -20.0121 4.22156 4.01013 -18.1342 6.29125 4.06747 -16.2288 8.33355 4.10843 -14.2961 10.3485 4.13301 -12.336 12.336 4.1412 -10.3485 14.2961 4.13301 -8.33355 16.2288 4.10843 -6.29125 18.1342 4.06747 -4.22156 20.0121 4.01013 -2.12448 21.8627 3.9364 7.52749e-11 23.6859 3.84628 2.15187 25.4816 3.73978 -27.2181 -1.57405e-10 3.53439 -25.4816 2.15187 3.73978 -23.7132 4.27178 3.91358 -21.9129 6.35973 4.05577 -20.0806 8.41573 4.16636 -18.2164 10.4398 4.24536 -16.3201 12.4319 4.29276 -14.392 14.392 4.30856 -12.4319 16.3201 4.29276 -10.4398 18.2164 4.24536 -8.41573 20.0806 4.16636 -6.35973 21.9129 4.05577 -4.27178 23.7132 3.91358 -2.15187 25.4816 3.73978 6.78462e-11 27.2181 3.53439 4.68736e-11 -26.6924 -10.6903 2.22752 -25.1067 -10.9293 4.40567 -23.4717 -11.1316 6.53445 -21.7872 -11.297 8.61385 -20.0534 -11.4258 10.6439 -18.2703 -11.5177 12.6245 -16.4377 -11.5729 14.5558 -14.5558 -11.5912 16.4377 -12.6245 -11.5729 18.2703 -10.6439 -11.5177 20.0534 -8.61385 -11.4258 21.7872 -6.53445 -11.297 23.4717 -4.40567 -11.1316 25.1067 -2.22752 -10.9293 26.6924 -1.37134e-10 -10.6903 -2.22752 -25.1067 -10.9293 5.4059e-11 -23.4293 -11.1796 2.1852 -21.7096 -11.3914 4.32808 -19.9476 -11.5647 6.42865 -18.1433 -11.6995 8.48689 -16.2967 -11.7958 10.5028 -14.4077 -11.8536 12.4764 -12.4764 -11.8728 14.4077 -10.5028 -11.8536 16.2967 -8.48689 -11.7958 18.1433 -6.42865 -11.6995 19.9476 -4.32808 -11.5647 21.7096 -2.1852 -11.3914 23.4293 -1.41236e-10 -11.1796 25.1067 2.22752 -10.9293 -4.40567 -23.4717 -11.1316 -2.1852 -21.7096 -11.3914 6.04134e-11 -19.9124 -11.6113 2.14994 -18.0798 -11.7912 4.2646 -16.212 -11.9312 6.34401 -14.309 -12.0311 8.38815 -12.3706 -12.0911 10.397 -10.397 -12.1111 12.3706 -8.38815 -12.0911 14.309 -6.34401 -12.0311 16.212 -4.2646 -11.9312 18.0798 -2.14994 -11.7912 19.9124 -1.44141e-10 -11.6113 21.7096 2.1852 -11.3914 23.4717 4.40567 -11.1316 -6.53445 -21.7872 -11.297 -4.32808 -19.9476 -11.5647 -2.14994 -18.0798 -11.7912 6.59274e-11 -16.1838 -11.9766 2.12172 -14.2596 -12.1207 4.21523 -12.3071 -12.2237 6.28053 -10.3265 -12.2854 8.31761 -8.31761 -12.306 10.3265 -6.28053 -12.2854 12.3071 -4.21523 -12.2237 14.2596 -2.12172 -12.1207 16.1838 -1.4581e-10 -11.9766 18.0798 2.14994 -11.7912 19.9476 4.32808 -11.5647 21.7872 6.53445 -11.297 -8.61385 -20.0534 -11.4258 -6.42865 -18.1433 -11.6995 -4.2646 -16.212 -11.9312 -2.12172 -14.2596 -12.1207 7.05762e-11 -12.286 -12.2681 2.10056 -10.2912 -12.3734 4.17997 -8.27529 -12.4366 6.23821 -6.23821 -12.4577 8.27529 -4.17997 -12.4366 10.2912 -2.10056 -12.3734 12.286 -1.46226e-10 -12.2681 14.2596 2.12172 -12.1207 16.212 4.2646 -11.9312 18.1433 6.42865 -11.6995 20.0534 8.61385 -11.4258 -10.6439 -18.2703 -11.5177 -8.48689 -16.2967 -11.7958 -6.34401 -14.309 -12.0311 -4.21523 -12.3071 -12.2237 -2.10056 -10.2912 -12.3734 7.43424e-11 -8.26119 -12.4804 2.08646 -6.21705 -12.5446 4.15881 -4.15881 -12.566 6.21705 -2.08646 -12.5446 8.26119 -1.45363e-10 -12.4804 10.2912 2.10056 -12.3734 12.3071 4.21523 -12.2237 14.309 6.34401 -12.0311 16.2967 8.48689 -11.7958 18.2703 10.6439 -11.5177 -12.6245 -16.4377 -11.5729 -10.5028 -14.4077 -11.8536 -8.38815 -12.3706 -12.0911 -6.28053 -10.3265 -12.2854 -4.17997 -8.27529 -12.4366 -2.08646 -6.21705 -12.5446 7.7207e-11 -4.15175 -12.6093 2.0794 -2.0794 -12.6309 4.15175 -1.43197e-10 -12.6093 6.21705 2.08646 -12.5446 8.27529 4.17997 -12.4366 10.3265 6.28053 -12.2854 12.3706 8.38815 -12.0911 14.4077 10.5028 -11.8536 16.4377 12.6245 -11.5729 -14.5558 -14.5558 -11.5912 -12.4764 -12.4764 -11.8728 -10.397 -10.397 -12.1111 -8.31761 -8.31761 -12.306 -6.23821 -6.23821 -12.4577 -4.15881 -4.15881 -12.566 -2.0794 -2.0794 -12.6309 7.91536e-11 -1.39697e-10 -12.6526 2.0794 2.0794 -12.6309 4.15881 4.15881 -12.566 6.23821 6.23821 -12.4577 8.31761 8.31761 -12.306 10.397 10.397 -12.1111 12.4764 12.4764 -11.8728 14.5558 14.5558 -11.5912 -16.4377 -12.6245 -11.5729 -14.4077 -10.5028 -11.8536 -12.3706 -8.38815 -12.0911 -10.3265 -6.28053 -12.2854 -8.27529 -4.17997 -12.4366 -6.21705 -2.08646 -12.5446 -4.15175 -1.40953e-10 -12.6093 -2.0794 2.0794 -12.6309 7.76322e-11 4.15175 -12.6093 2.08646 6.21705 -12.5446 4.17997 8.27529 -12.4366 6.28053 10.3265 -12.2854 8.38815 12.3706 -12.0911 10.5028 14.4077 -11.8536 12.6245 16.4377 -11.5729 -18.2703 -10.6439 -11.5177 -16.2967 -8.48689 -11.7958 -14.309 -6.34401 -12.0311 -12.3071 -4.21523 -12.2237 -10.2912 -2.10056 -12.3734 -8.26119 -1.4032e-10 -12.4804 -6.21705 2.08646 -12.5446 -4.15881 4.15881 -12.566 -2.08646 6.21705 -12.5446 7.57424e-11 8.26119 -12.4804 2.10056 10.2912 -12.3734 4.21523 12.3071 -12.2237 6.34401 14.309 -12.0311 8.48689 16.2967 -11.7958 10.6439 18.2703 -11.5177 -20.0534 -8.61385 -11.4258 -18.1433 -6.42865 -11.6995 -16.212 -4.2646 -11.9312 -14.2596 -2.12172 -12.1207 -12.286 -1.37837e-10 -12.2681 -10.2912 2.10056 -12.3734 -8.27529 4.17997 -12.4366 -6.23821 6.23821 -12.4577 -4.17997 8.27529 -12.4366 -2.10056 10.2912 -12.3734 7.34878e-11 12.286 -12.2681 2.12172 14.2596 -12.1207 4.2646 16.212 -11.9312 6.42865 18.1433 -11.6995 8.61385 20.0534 -11.4258 -21.7872 -6.53445 -11.297 -19.9476 -4.32808 -11.5647 -18.0798 -2.14994 -11.7912 -16.1838 -1.33516e-10 -11.9766 -14.2596 2.12172 -12.1207 -12.3071 4.21523 -12.2237 -10.3265 6.28053 -12.2854 -8.31761 8.31761 -12.306 -6.28053 10.3265 -12.2854 -4.21523 12.3071 -12.2237 -2.12172 14.2596 -12.1207 7.08864e-11 16.1838 -11.9766 2.14994 18.0798 -11.7912 4.32808 19.9476 -11.5647 6.53445 21.7872 -11.297 -23.4717 -4.40567 -11.1316 -21.7096 -2.1852 -11.3914 -19.9124 -1.27392e-10 -11.6113 -18.0798 2.14994 -11.7912 -16.212 4.2646 -11.9312 -14.309 6.34401 -12.0311 -12.3706 8.38815 -12.0911 -10.397 10.397 -12.1111 -8.38815 12.3706 -12.0911 -6.34401 14.309 -12.0311 -4.2646 16.212 -11.9312 -2.14994 18.0798 -11.7912 6.79465e-11 19.9124 -11.6113 2.1852 21.7096 -11.3914 4.40567 23.4717 -11.1316 -25.1067 -2.22752 -10.9293 -23.4293 -1.19487e-10 -11.1796 -21.7096 2.1852 -11.3914 -19.9476 4.32808 -11.5647 -18.1433 6.42865 -11.6995 -16.2967 8.48689 -11.7958 -14.4077 10.5028 -11.8536 -12.4764 12.4764 -11.8728 -10.5028 14.4077 -11.8536 -8.48689 16.2967 -11.7958 -6.42865 18.1433 -11.6995 -4.32808 19.9476 -11.5647 -2.1852 21.7096 -11.3914 6.46709e-11 23.4293 -11.1796 2.22752 25.1067 -10.9293 -26.6924 -1.09841e-10 -10.6903 -25.1067 2.22752 -10.9293 -23.4717 4.40567 -11.1316 -21.7872 6.53445 -11.297 -20.0534 8.61385 -11.4258 -18.2703 10.6439 -11.5177 -16.4377 12.6245 -11.5729 -14.5558 14.5558 -11.5912 -12.6245 16.4377 -11.5729 -10.6439 18.2703 -11.5177 -8.61385 20.0534 -11.4258 -6.53445 21.7872 -11.297 -4.40567 23.4717 -11.1316 -2.22752 25.1067 -10.9293 6.10747e-11 26.6924 -10.6903 2.02931e-11 -25.953 -23.4086 2.18596 -24.4314 -24.1471 4.32081 -22.8587 -24.7719 6.40457 -21.2349 -25.2832 8.43722 -19.5599 -25.6809 10.4188 -17.8339 -25.9649 12.3492 -16.0568 -26.1353 14.2285 -14.2285 -26.1921 16.0568 -12.3492 -26.1353 17.8339 -10.4188 -25.9649 19.5599 -8.43722 -25.6809 21.2349 -6.40457 -25.2832 22.8587 -4.32081 -24.7719 24.4314 -2.18596 -24.1471 25.953 -9.02283e-11 -23.4086 -2.18596 -24.4314 -24.1471 2.77379e-11 -22.8149 -24.9124 2.14216 -21.1546 -25.5599 4.24051 -19.4504 -26.0898 6.29506 -17.7025 -26.5018 8.30581 -15.9108 -26.7962 10.2728 -14.0752 -26.9728 12.1959 -12.1959 -27.0317 14.0752 -10.2728 -26.9728 15.9108 -8.30581 -26.7962 17.7025 -6.29506 -26.5018 19.4504 -4.24051 -26.0898 21.1546 -2.14216 -25.5599 22.8149 -9.22812e-11 -24.9124 24.4314 2.18596 -24.1471 -4.32081 -22.8587 -24.7719 -2.14216 -21.1546 -25.5599 3.47173e-11 -19.4139 -26.2267 2.10565 -17.6368 -26.7722 4.17481 -15.8232 -27.1965 6.20745 -13.973 -27.4996 8.2036 -12.0864 -27.6814 10.1632 -10.1632 -27.742 12.0864 -8.2036 -27.6814 13.973 -6.20745 -27.4996 15.8232 -4.17481 -27.1965 17.6368 -2.10565 -26.7722 19.4139 -9.40648e-11 -26.2267 21.1546 2.14216 -25.5599 22.8587 4.32081 -24.7719 -6.40457 -21.2349 -25.2832 -4.24051 -19.4504 -26.0898 -2.10565 -17.6368 -26.7722 4.11876e-11 -15.794 -27.3306 2.07645 -13.9219 -27.7649 4.1237 -12.0207 -28.0751 6.14175 -10.0902 -28.2612 8.1306 -8.1306 -28.3233 10.0902 -6.14175 -28.2612 12.0207 -4.1237 -28.0751 13.9219 -2.07645 -27.7649 15.794 -9.55562e-11 -27.3306 17.6368 2.10565 -26.7722 19.4504 4.24051 -26.0898 21.2349 6.40457 -25.2832 -8.43722 -19.5599 -25.6809 -6.29506 -17.7025 -26.5018 -4.17481 -15.8232 -27.1965 -2.07645 -13.9219 -27.7649 4.71033e-11 -11.9988 -28.207 2.05455 -10.0537 -28.5227 4.0872 -8.08679 -28.7122 6.09795 -6.09795 -28.7753 8.08679 -4.0872 -28.7122 10.0537 -2.05455 -28.5227 11.9988 -9.6761e-11 -28.207 13.9219 2.07645 -27.7649 15.8232 4.17481 -27.1965 17.7025 6.29506 -26.5018 19.5599 8.43722 -25.6809 -10.4188 -17.8339 -25.9649 -8.30581 -15.9108 -26.7962 -6.20745 -13.973 -27.4996 -4.1237 -12.0207 -28.0751 -2.05455 -10.0537 -28.5227 5.2424e-11 -8.07219 -28.8424 2.03995 -6.07605 -29.0343 4.0653 -4.0653 -29.0982 6.07605 -2.03995 -29.0343 8.07219 -9.76759e-11 -28.8424 10.0537 2.05455 -28.5227 12.0207 4.1237 -28.0751 13.973 6.20745 -27.4996 15.9108 8.30581 -26.7962 17.8339 10.4188 -25.9649 -12.3492 -16.0568 -26.1353 -10.2728 -14.0752 -26.9728 -8.2036 -12.0864 -27.6814 -6.14175 -10.0902 -28.2612 -4.0872 -8.08679 -28.7122 -2.03995 -6.07605 -29.0343 5.71028e-11 -4.058 -29.2275 2.03265 -2.03265 -29.292 4.058 -9.82981e-11 -29.2275 6.07605 2.03995 -29.0343 8.08679 4.0872 -28.7122 10.0902 6.14175 -28.2612 12.0864 8.2036 -27.6814 14.0752 10.2728 -26.9728 16.0568 12.3492 -26.1353 -14.2285 -14.2285 -26.1921 -12.1959 -12.1959 -27.0317 -10.1632 -10.1632 -27.742 -8.1306 -8.1306 -28.3233 -6.09795 -6.09795 -28.7753 -4.0653 -4.0653 -29.0982 -2.03265 -2.03265 -29.292 6.10963e-11 -9.8612e-11 -29.3565 2.03265 2.03265 -29.292 4.0653 4.0653 -29.0982 6.09795 6.09795 -28.7753 8.1306 8.1306 -28.3233 10.1632 10.1632 -27.742 12.1959 12.1959 -27.0317 14.2285 14.2285 -26.1921 -16.0568 -12.3492 -26.1353 -14.0752 -10.2728 -26.9728 -12.0864 -8.2036 -27.6814 -10.0902 -6.14175 -28.2612 -8.08679 -4.0872 -28.7122 -6.07605 -2.03995 -29.0343 -4.058 -9.68134e-11 -29.2275 -2.03265 2.03265 -29.292 5.82502e-11 4.058 -29.2275 2.03995 6.07605 -29.0343 4.0872 8.08679 -28.7122 6.14175 10.0902 -28.2612 8.2036 12.0864 -27.6814 10.2728 14.0752 -26.9728 12.3492 16.0568 -26.1353 -17.8339 -10.4188 -25.9649 -15.9108 -8.30581 -26.7962 -13.973 -6.20745 -27.4996 -12.0207 -4.1237 -28.0751 -10.0537 -2.05455 -28.5227 -8.07219 -9.33127e-11 -28.8424 -6.07605 2.03995 -29.0343 -4.0653 4.0653 -29.0982 -2.03995 6.07605 -29.0343 5.61414e-11 8.07219 -28.8424 2.05455 10.0537 -28.5227 4.1237 12.0207 -28.0751 6.20745 13.973 -27.4996 8.30581 15.9108 -26.7962 10.4188 17.8339 -25.9649 -19.5599 -8.43722 -25.6809 -17.7025 -6.29506 -26.5018 -15.8232 -4.17481 -27.1965 -13.9219 -2.07645 -27.7649 -11.9988 -8.81906e-11 -28.207 -10.0537 2.05455 -28.5227 -8.08679 4.0872 -28.7122 -6.09795 6.09795 -28.7753 -4.0872 8.08679 -28.7122 -2.05455 10.0537 -28.5227 5.47822e-11 11.9988 -28.207 2.07645 13.9219 -27.7649 4.17481 15.8232 -27.1965 6.29506 17.7025 -26.5018 8.43722 19.5599 -25.6809 -21.2349 -6.40457 -25.2832 -19.4504 -4.24051 -26.0898 -17.6368 -2.10565 -26.7722 -15.794 -8.15049e-11 -27.3306 -13.9219 2.07645 -27.7649 -12.0207 4.1237 -28.0751 -10.0902 6.14175 -28.2612 -8.1306 8.1306 -28.3233 -6.14175 10.0902 -28.2612 -4.1237 12.0207 -28.0751 -2.07645 13.9219 -27.7649 5.41891e-11 15.794 -27.3306 2.10565 17.6368 -26.7722 4.24051 19.4504 -26.0898 6.40457 21.2349 -25.2832 -22.8587 -4.32081 -24.7719 -21.1546 -2.14216 -25.5599 -19.4139 -7.3326e-11 -26.2267 -17.6368 2.10565 -26.7722 -15.8232 4.17481 -27.1965 -13.973 6.20745 -27.4996 -12.0864 8.2036 -27.6814 -10.1632 10.1632 -27.742 -8.2036 12.0864 -27.6814 -6.20745 13.973 -27.4996 -4.17481 15.8232 -27.1965 -2.10565 17.6368 -26.7722 5.43636e-11 19.4139 -26.2267 2.14216 21.1546 -25.5599 4.32081 22.8587 -24.7719 -24.4314 -2.18596 -24.1471 -22.8149 -6.37201e-11 -24.9124 -21.1546 2.14216 -25.5599 -19.4504 4.24051 -26.0898 -17.7025 6.29506 -26.5018 -15.9108 8.30581 -26.7962 -14.0752 10.2728 -26.9728 -12.1959 12.1959 -27.0317 -10.2728 14.0752 -26.9728 -8.30581 15.9108 -26.7962 -6.29506 17.7025 -26.5018 -4.24051 19.4504 -26.0898 -2.14216 21.1546 -25.5599 5.53264e-11 22.8149 -24.9124 2.18596 24.4314 -24.1471 -25.953 -5.27542e-11 -23.4086 -24.4314 2.18596 -24.1471 -22.8587 4.32081 -24.7719 -21.2349 6.40457 -25.2832 -19.5599 8.43722 -25.6809 -17.8339 10.4188 -25.9649 -16.0568 12.3492 -26.1353 -14.2285 14.2285 -26.1921 -12.3492 16.0568 -26.1353 -10.4188 17.8339 -25.9649 -8.43722 19.5599 -25.6809 -6.40457 21.2349 -25.2832 -4.32081 22.8587 -24.7719 -2.18596 24.4314 -24.1471 5.70868e-11 25.953 -23.4086 2.92685e-12 -25.3632 -33.0289 2.11541 -23.8553 -34.1083 4.18409 -22.3007 -35.0216 6.20604 -20.6993 -35.7689 8.18126 -19.0512 -36.3501 10.1098 -17.3564 -36.7653 11.9915 -15.6148 -37.0143 13.8265 -13.8265 -37.0974 15.6148 -11.9915 -37.0143 17.3564 -10.1098 -36.7653 19.0512 -8.18126 -36.3501 20.6993 -6.20604 -35.7689 22.3007 -4.18409 -35.0216 23.8553 -2.11541 -34.1083 25.3632 -5.8411e-11 -33.0289 -2.11541 -23.8553 -34.1083 9.59616e-12 -22.2606 -35.1987 2.07536 -20.6259 -36.1213 4.11066 -18.9511 -36.8761 6.10591 -17.2362 -37.4633 8.0611 -15.4813 -37.8826 9.97623 -13.6863 -38.1343 11.8513 -11.8513 -38.2181 13.6863 -9.97623 -38.1343 15.4813 -8.0611 -37.8826 17.2362 -6.10591 -37.4633 18.9511 -4.11066 -36.8761 20.6259 -2.07536 -36.1213 22.2606 -5.83216e-11 -35.1987 23.8553 2.11541 -34.1083 -4.18409 -22.3007 -35.0216 -2.07536 -20.6259 -36.1213 1.60499e-11 -18.9177 -37.0518 2.04198 -17.1761 -37.813 4.05058 -15.4012 -38.4052 6.02579 -13.5929 -38.8281 7.96763 -11.7512 -39.0819 9.87609 -9.87609 -39.1665 11.7512 -7.96763 -39.0819 13.5929 -6.02579 -38.8281 15.4012 -4.05058 -38.4052 17.1761 -2.04198 -37.813 18.9177 -5.80949e-11 -37.0518 20.6259 2.07536 -36.1213 22.3007 4.18409 -35.0216 -6.20604 -20.6993 -35.7689 -4.11066 -18.9511 -36.8761 -2.04198 -17.1761 -37.813 2.22395e-11 -15.3745 -38.5796 2.01527 -13.5461 -39.1758 4.00384 -11.6911 -39.6017 5.96571 -9.80934 -39.8572 7.90088 -7.90088 -39.9424 9.80934 -5.96571 -39.8572 11.6911 -4.00384 -39.6017 13.5461 -2.01527 -39.1758 15.3745 -5.77713e-11 -38.5796 17.1761 2.04198 -37.813 18.9511 4.11066 -36.8761 20.6993 6.20604 -35.7689 -8.18126 -19.0512 -36.3501 -6.10591 -17.2362 -37.4633 -4.05058 -15.4012 -38.4052 -2.01527 -13.5461 -39.1758 2.81455e-11 -11.6711 -39.7752 1.99525 -9.77596 -40.2033 3.97047 -7.86082 -40.4602 5.92566 -5.92566 -40.5458 7.86082 -3.97047 -40.4602 9.77596 -1.99525 -40.2033 11.6711 -5.73766e-11 -39.7752 13.5461 2.01527 -39.1758 15.4012 4.05058 -38.4052 17.2362 6.10591 -37.4633 19.0512 8.18126 -36.3501 -10.1098 -17.3564 -36.7653 -8.0611 -15.4813 -37.8826 -6.02579 -13.5929 -38.8281 -4.00384 -11.6911 -39.6017 -1.99525 -9.77596 -40.2033 3.37318e-11 -7.84747 -40.6331 1.98189 -5.90563 -40.891 3.95044 -3.95044 -40.9769 5.90563 -1.98189 -40.891 7.84747 -5.69431e-11 -40.6331 9.77596 1.99525 -40.2033 11.6911 4.00384 -39.6017 13.5929 6.02579 -38.8281 15.4813 8.0611 -37.8826 17.3564 10.1098 -36.7653 -11.9915 -15.6148 -37.0143 -9.97623 -13.6863 -38.1343 -7.96763 -11.7512 -39.0819 -5.96571 -9.80934 -39.8572 -3.97047 -7.86082 -40.4602 -1.98189 -5.90563 -40.891 3.89648e-11 -3.94376 -41.1494 1.97522 -1.97522 -41.2355 3.94376 -5.65074e-11 -41.1494 5.90563 1.98189 -40.891 7.86082 3.97047 -40.4602 9.80934 5.96571 -39.8572 11.7512 7.96763 -39.0819 13.6863 9.97623 -38.1343 15.6148 11.9915 -37.0143 -13.8265 -13.8265 -37.0974 -11.8513 -11.8513 -38.2181 -9.87609 -9.87609 -39.1665 -7.90088 -7.90088 -39.9424 -5.92566 -5.92566 -40.5458 -3.95044 -3.95044 -40.9769 -1.97522 -1.97522 -41.2355 4.38125e-11 -5.60872e-11 -41.3218 1.97522 1.97522 -41.2355 3.95044 3.95044 -40.9769 5.92566 5.92566 -40.5458 7.90088 7.90088 -39.9424 9.87609 9.87609 -39.1665 11.8513 11.8513 -38.2181 13.8265 13.8265 -37.0974 -15.6148 -11.9915 -37.0143 -13.6863 -9.97623 -38.1343 -11.7512 -7.96763 -39.0819 -9.80934 -5.96571 -39.8572 -7.86082 -3.97047 -40.4602 -5.90563 -1.98189 -40.891 -3.94376 -5.51765e-11 -41.1494 -1.97522 1.97522 -41.2355 3.93518e-11 3.94376 -41.1494 1.98189 5.90563 -40.891 3.97047 7.86082 -40.4602 5.96571 9.80934 -39.8572 7.96763 11.7512 -39.0819 9.97623 13.6863 -38.1343 11.9915 15.6148 -37.0143 -17.3564 -10.1098 -36.7653 -15.4813 -8.0611 -37.8826 -13.5929 -6.02579 -38.8281 -11.6911 -4.00384 -39.6017 -9.77596 -1.99525 -40.2033 -7.84747 -5.27429e-11 -40.6331 -5.90563 1.98189 -40.891 -3.95044 3.95044 -40.9769 -1.98189 5.90563 -40.891 3.60793e-11 7.84747 -40.6331 1.99525 9.77596 -40.2033 4.00384 11.6911 -39.6017 6.02579 13.5929 -38.8281 8.0611 15.4813 -37.8826 10.1098 17.3564 -36.7653 -19.0512 -8.18126 -36.3501 -17.2362 -6.10591 -37.4633 -15.4012 -4.05058 -38.4052 -13.5461 -2.01527 -39.1758 -11.6711 -4.88679e-11 -39.7752 -9.77596 1.99525 -40.2033 -7.86082 3.97047 -40.4602 -5.92566 5.92566 -40.5458 -3.97047 7.86082 -40.4602 -1.99525 9.77596 -40.2033 3.39636e-11 11.6711 -39.7752 2.01527 13.5461 -39.1758 4.05058 15.4012 -38.4052 6.10591 17.2362 -37.4633 8.18126 19.0512 -36.3501 -20.6993 -6.20604 -35.7689 -18.9511 -4.11066 -36.8761 -17.1761 -2.04198 -37.813 -15.3745 -4.3612e-11 -38.5796 -13.5461 2.01527 -39.1758 -11.6911 4.00384 -39.6017 -9.80934 5.96571 -39.8572 -7.90088 7.90088 -39.9424 -5.96571 9.80934 -39.8572 -4.00384 11.6911 -39.6017 -2.01527 13.5461 -39.1758 3.29687e-11 15.3745 -38.5796 2.04198 17.1761 -37.813 4.11066 18.9511 -36.8761 6.20604 20.6993 -35.7689 -22.3007 -4.18409 -35.0216 -20.6259 -2.07536 -36.1213 -18.9177 -3.70533e-11 -37.0518 -17.1761 2.04198 -37.813 -15.4012 4.05058 -38.4052 -13.5929 6.02579 -38.8281 -11.7512 7.96763 -39.0819 -9.87609 9.87609 -39.1665 -7.96763 11.7512 -39.0819 -6.02579 13.5929 -38.8281 -4.05058 15.4012 -38.4052 -2.04198 17.1761 -37.813 3.30654e-11 18.9177 -37.0518 2.07536 20.6259 -36.1213 4.18409 22.3007 -35.0216 -23.8553 -2.11541 -34.1083 -22.2606 -2.92508e-11 -35.1987 -20.6259 2.07536 -36.1213 -18.9511 4.11066 -36.8761 -17.2362 6.10591 -37.4633 -15.4813 8.0611 -37.8826 -13.6863 9.97623 -38.1343 -11.8513 11.8513 -38.2181 -9.97623 13.6863 -38.1343 -8.0611 15.4813 -37.8826 -6.10591 17.2362 -37.4633 -4.11066 18.9511 -36.8761 -2.07536 20.6259 -36.1213 3.4216e-11 22.2606 -35.1987 2.11541 23.8553 -34.1083 -25.3632 -2.02796e-11 -33.0289 -23.8553 2.11541 -34.1083 -22.3007 4.18409 -35.0216 -20.6993 6.20604 -35.7689 -19.0512 8.18126 -36.3501 -17.3564 10.1098 -36.7653 -15.6148 11.9915 -37.0143 -13.8265 13.8265 -37.0974 -11.9915 15.6148 -37.0143 -10.1098 17.3564 -36.7653 -8.18126 19.0512 -36.3501 -6.20604 20.6993 -35.7689 -4.18409 22.3007 -35.0216 -2.11541 23.8553 -34.1083 3.63944e-11 25.3632 -33.0289 -1.47427e-11 -24.5788 -42.0323 2.0343 -23.1018 -43.4021 4.02573 -21.582 -44.5611 5.97429 -20.0193 -45.5094 7.87997 -18.4137 -46.2469 9.74278 -16.7653 -46.7738 11.5627 -15.074 -47.0899 13.3398 -13.3398 -47.1952 15.074 -11.5627 -47.0899 16.7653 -9.74278 -46.7738 18.4137 -7.87997 -46.2469 20.0193 -5.97429 -45.5094 21.582 -4.02573 -44.5611 23.1018 -2.0343 -43.4021 24.5788 -2.63419e-11 -42.0323 -2.0343 -23.1018 -43.4021 -8.85018e-12 -21.5452 -44.7936 1.99755 -19.9519 -45.971 3.95836 -18.3219 -46.9344 5.88242 -16.655 -47.6837 7.76972 -14.9515 -48.2189 9.62028 -13.2112 -48.54 11.4341 -11.4341 -48.647 13.2112 -9.62028 -48.54 14.9515 -7.76972 -48.2189 16.655 -5.88242 -47.6837 18.3219 -3.95836 -46.9344 19.9519 -1.99755 -45.971 21.5452 -2.42581e-11 -44.7936 23.1018 2.0343 -43.4021 -4.02573 -21.582 -44.5611 -1.99755 -19.9519 -45.971 -3.01138e-12 -18.2912 -47.1641 1.96693 -16.5999 -48.1402 3.90324 -14.878 -48.8994 5.80892 -13.1254 -49.4417 7.68398 -11.3422 -49.7671 9.52841 -9.52841 -49.8755 11.3422 -7.68398 -49.7671 13.1254 -5.80892 -49.4417 14.878 -3.90324 -48.8994 16.5999 -1.96693 -48.1402 18.2912 -2.22502e-11 -47.1641 19.9519 1.99755 -45.971 21.582 4.02573 -44.5611 -5.97429 -20.0193 -45.5094 -3.95836 -18.3219 -46.9344 -1.96693 -16.5999 -48.1402 2.77102e-12 -14.8535 -49.1267 1.94243 -13.0825 -49.8941 3.86036 -11.2871 -50.4421 5.7538 -9.46716 -50.771 7.62273 -7.62273 -50.8806 9.46716 -5.7538 -50.771 11.2871 -3.86036 -50.4421 13.0825 -1.94243 -49.8941 14.8535 -2.03588e-11 -49.1267 16.5999 1.96693 -48.1402 18.3219 3.95836 -46.9344 20.0193 5.97429 -45.5094 -7.87997 -18.4137 -46.2469 -5.88242 -16.655 -47.6837 -3.90324 -14.878 -48.8994 -1.94243 -13.0825 -49.8941 8.46498e-12 -11.2687 -50.6677 1.92406 -9.43654 -51.2203 3.82974 -7.58598 -51.5519 5.71705 -5.71705 -51.6624 7.58598 -3.82974 -51.5519 9.43654 -1.92406 -51.2203 11.2687 -1.86447e-11 -50.6677 13.0825 1.94243 -49.8941 14.878 3.90324 -48.8994 16.655 5.88242 -47.6837 18.4137 7.87997 -46.2469 -9.74278 -16.7653 -46.7738 -7.76972 -14.9515 -48.2189 -5.80892 -13.1254 -49.4417 -3.86036 -11.2871 -50.4421 -1.92406 -9.43654 -51.2203 1.40567e-11 -7.57373 -51.7761 1.91181 -5.69867 -52.1096 3.81136 -3.81136 -52.2208 5.69867 -1.91181 -52.1096 7.57373 -1.71566e-11 -51.7761 9.43654 1.92406 -51.2203 11.2871 3.86036 -50.4421 13.1254 5.80892 -49.4417 14.9515 7.76972 -48.2189 16.7653 9.74278 -46.7738 -11.5627 -15.074 -47.0899 -9.62028 -13.2112 -48.54 -7.68398 -11.3422 -49.7671 -5.7538 -9.46716 -50.771 -3.82974 -7.58598 -51.5519 -1.91181 -5.69867 -52.1096 1.95236e-11 -3.80524 -52.4443 1.90568 -1.90568 -52.5558 3.80524 -1.5955e-11 -52.4443 5.69867 1.91181 -52.1096 7.58598 3.82974 -51.5519 9.46716 5.7538 -50.771 11.3422 7.68398 -49.7671 13.2112 9.62028 -48.54 15.074 11.5627 -47.0899 -13.3398 -13.3398 -47.1952 -11.4341 -11.4341 -48.647 -9.52841 -9.52841 -49.8755 -7.62273 -7.62273 -50.8806 -5.71705 -5.71705 -51.6624 -3.81136 -3.81136 -52.2208 -1.90568 -1.90568 -52.5558 2.48462e-11 -1.50813e-11 -52.6675 1.90568 1.90568 -52.5558 3.81136 3.81136 -52.2208 5.71705 5.71705 -51.6624 7.62273 7.62273 -50.8806 9.52841 9.52841 -49.8755 11.4341 11.4341 -48.647 13.3398 13.3398 -47.1952 -15.074 -11.5627 -47.0899 -13.2112 -9.62028 -48.54 -11.3422 -7.68398 -49.7671 -9.46716 -5.7538 -50.771 -7.58598 -3.82974 -51.5519 -5.69867 -1.91181 -52.1096 -3.80524 -1.47739e-11 -52.4443 -1.90568 1.90568 -52.5558 1.94744e-11 3.80524 -52.4443 1.91181 5.69867 -52.1096 3.82974 7.58598 -51.5519 5.7538 9.46716 -50.771 7.68398 11.3422 -49.7671 9.62028 13.2112 -48.54 11.5627 15.074 -47.0899 -16.7653 -9.74278 -46.7738 -14.9515 -7.76972 -48.2189 -13.1254 -5.80892 -49.4417 -11.2871 -3.86036 -50.4421 -9.43654 -1.92406 -51.2203 -7.57373 -1.31898e-11 -51.7761 -5.69867 1.91181 -52.1096 -3.81136 3.81136 -52.2208 -1.91181 5.69867 -52.1096 1.55998e-11 7.57373 -51.7761 1.92406 9.43654 -51.2203 3.86036 11.2871 -50.4421 5.80892 13.1254 -49.4417 7.76972 14.9515 -48.2189 9.74278 16.7653 -46.7738 -18.4137 -7.87997 -46.2469 -16.655 -5.88242 -47.6837 -14.878 -3.90324 -48.8994 -13.0825 -1.94243 -49.8941 -11.2687 -1.03975e-11 -50.6677 -9.43654 1.92406 -51.2203 -7.58598 3.82974 -51.5519 -5.71705 5.71705 -51.6624 -3.82974 7.58598 -51.5519 -1.92406 9.43654 -51.2203 1.31654e-11 11.2687 -50.6677 1.94243 13.0825 -49.8941 3.90324 14.878 -48.8994 5.88242 16.655 -47.6837 7.87997 18.4137 -46.2469 -20.0193 -5.97429 -45.5094 -18.3219 -3.95836 -46.9344 -16.5999 -1.96693 -48.1402 -14.8535 -6.45228e-12 -49.1267 -13.0825 1.94243 -49.8941 -11.2871 3.86036 -50.4421 -9.46716 5.7538 -50.771 -7.62273 7.62273 -50.8806 -5.7538 9.46716 -50.771 -3.86036 11.2871 -50.4421 -1.94243 13.0825 -49.8941 1.21147e-11 14.8535 -49.1267 1.96693 16.5999 -48.1402 3.95836 18.3219 -46.9344 5.97429 20.0193 -45.5094 -21.582 -4.02573 -44.5611 -19.9519 -1.99755 -45.971 -18.2912 -1.41739e-12 -47.1641 -16.5999 1.96693 -48.1402 -14.878 3.90324 -48.8994 -13.1254 5.80892 -49.4417 -11.3422 7.68398 -49.7671 -9.52841 9.52841 -49.8755 -7.68398 11.3422 -49.7671 -5.80892 13.1254 -49.4417 -3.90324 14.878 -48.8994 -1.96693 16.5999 -48.1402 1.23943e-11 18.2912 -47.1641 1.99755 19.9519 -45.971 4.02573 21.582 -44.5611 -23.1018 -2.0343 -43.4021 -21.5452 4.65678e-12 -44.7936 -19.9519 1.99755 -45.971 -18.3219 3.95836 -46.9344 -16.655 5.88242 -47.6837 -14.9515 7.76972 -48.2189 -13.2112 9.62028 -48.54 -11.4341 11.4341 -48.647 -9.62028 13.2112 -48.54 -7.76972 14.9515 -48.2189 -5.88242 16.655 -47.6837 -3.95836 18.3219 -46.9344 -1.99755 19.9519 -45.971 1.3941e-11 21.5452 -44.7936 2.0343 23.1018 -43.4021 -24.5788 1.16998e-11 -42.0323 -23.1018 2.0343 -43.4021 -21.582 4.02573 -44.5611 -20.0193 5.97429 -45.5094 -18.4137 7.87997 -46.2469 -16.7653 9.74278 -46.7738 -15.074 11.5627 -47.0899 -13.3398 13.3398 -47.1952 -11.5627 15.074 -47.0899 -9.74278 16.7653 -46.7738 -7.87997 18.4137 -46.2469 -5.97429 20.0193 -45.5094 -4.02573 21.582 -44.5611 -2.0343 23.1018 -43.4021 1.67034e-11 24.5788 -42.0323 -3.32425e-11 -23.5938 -51.0357 1.94316 -22.1664 -52.6958 3.84665 -20.6994 -54.1005 5.71046 -19.1926 -55.2499 7.5346 -17.6462 -56.1438 9.31906 -16.0602 -56.7823 11.0638 -14.4344 -57.1654 12.769 -12.769 -57.2931 14.4344 -11.0638 -57.1654 16.0602 -9.31906 -56.7823 17.6462 -7.5346 -56.1438 19.1926 -5.71046 -55.2499 20.6994 -3.84665 -54.1005 22.1664 -1.94316 -52.6958 23.5938 6.37979e-12 -51.0357 -1.94316 -22.1664 -52.6958 -2.80429e-11 -20.6654 -54.3885 1.90916 -19.13