<?xml version="1.0"?> 
<VTKFile type="StructuredGrid" version="0.1"> 
<StructuredGrid WholeExtent="0 29 0 29 0 29"> 
<Piece Extent="0 29 0 29 0 29"> 
<PointData>
<DataArray type="Float32" Name="efield" format="ascii" NumberOfComponents="3"> 
-7.23865e-13 -14.9545 -7.70688 0.466396 -14.3895 -7.7453 0.936311 -13.8281 -7.78096 1.40975 -13.2702 -7.81389 1.8867 -12.7158 -7.84407 2.36718 -12.1649 -7.87151 2.85117 -11.6176 -7.8962 3.33868 -11.0738 -7.91815 3.82972 -10.5334 -7.93736 4.32427 -9.99666 -7.95382 4.82234 -9.46339 -7.96754 5.32394 -8.93364 -7.97851 5.82905 -8.40741 -7.98675 6.33768 -7.8847 -7.99223 6.84983 -7.3655 -7.99498 7.3655 -6.84983 -7.99498 7.8847 -6.33768 -7.99223 8.40741 -5.82905 -7.98675 8.93364 -5.32394 -7.97851 9.46339 -4.82234 -7.96754 9.99666 -4.32427 -7.95382 10.5334 -3.82972 -7.93736 11.0738 -3.33868 -7.91815 11.6176 -2.85117 -7.8962 12.1649 -2.36718 -7.87151 12.7158 -1.8867 -7.84407 13.2702 -1.40975 -7.81389 13.8281 -0.936311 -7.78096 14.3895 -0.466396 -7.7453 14.9545 -1.06581e-13 -7.70688 -0.466396 -14.3895 -7.7453 -5.36322e-13 -13.8314 -7.82947 0.469673 -13.2765 -7.90763 0.942622 -12.7249 -7.97978 1.41885 -12.1766 -8.04592 1.89835 -11.6315 -8.10604 2.38113 -11.0898 -8.16016 2.86719 -10.5513 -8.20826 3.35652 -10.0161 -8.25034 3.84914 -9.48414 -8.28642 4.34502 -8.95548 -8.31648 4.84419 -8.4301 -8.34053 5.34663 -7.908 -8.35857 5.85235 -7.38917 -8.37059 6.36135 -6.87362 -8.37661 6.87362 -6.36135 -8.37661 7.38917 -5.85235 -8.37059 7.908 -5.34663 -8.35857 8.4301 -4.84419 -8.34053 8.95548 -4.34502 -8.31648 9.48414 -3.84914 -8.28642 10.0161 -3.35652 -8.25034 10.5513 -2.86719 -8.20826 11.0898 -2.38113 -8.16016 11.6315 -1.89835 -8.10604 12.1766 -1.41885 -8.04592 12.7249 -0.942622 -7.97978 13.2765 -0.469673 -7.90763 13.8314 5.10684e-14 -7.82947 14.3895 0.466396 -7.7453 -0.936311 -13.8281 -7.78096 -0.469673 -13.2765 -7.90763 -3.57169e-13 -12.7279 -8.02525 0.472707 -12.1824 -8.13383 0.948448 -11.6399 -8.23335 1.42722 -11.1005 -8.32383 1.90903 -10.564 -8.40526 2.39388 -10.0306 -8.47764 2.88175 -9.50028 -8.54097 3.37267 -8.97296 -8.59526 3.86661 -8.44867 -8.6405 4.36359 -7.92742 -8.67669 4.86361 -7.4092 -8.70383 5.36666 -6.89401 -8.72193 5.87274 -6.38186 -8.73098 6.38186 -5.87274 -8.73098 6.89401 -5.36666 -8.72193 7.4092 -4.86361 -8.70383 7.92742 -4.36359 -8.67669 8.44867 -3.86661 -8.6405 8.97296 -3.37267 -8.59526 9.50028 -2.88175 -8.54097 10.0306 -2.39388 -8.47764 10.564 -1.90903 -8.40526 11.1005 -1.42722 -8.32383 11.6399 -0.948448 -8.23335 12.1824 -0.472707 -8.13383 12.7279 1.93903e-13 -8.02525 13.2765 0.469673 -7.90763 13.8281 0.936311 -7.78096 -1.40975 -13.2702 -7.81389 -0.942622 -12.7249 -7.97978 -0.472707 -12.1824 -8.13383 -1.89551e-13 -11.6427 -8.27602 0.475498 -11.1058 -8.40636 0.953788 -10.5717 -8.52486 1.43487 -10.0404 -8.6315 1.91874 -9.51181 -8.7263 2.40541 -8.98607 -8.80925 2.89486 -8.46311 -8.88034 3.38711 -7.94295 -8.93959 3.88215 -7.42558 -8.98699 4.37998 -6.911 -9.02254 4.8806 -6.39921 -9.04624 5.38401 -5.89022 -9.05809 5.89022 -5.38401 -9.05809 6.39921 -4.8806 -9.04624 6.911 -4.37998 -9.02254 7.42558 -3.88215 -8.98699 7.94295 -3.38711 -8.93959 8.46311 -2.89486 -8.88034 8.98607 -2.40541 -8.80925 9.51181 -1.91874 -8.7263 10.0404 -1.43487 -8.6315 10.5717 -0.953788 -8.52486 11.1058 -0.475498 -8.40636 11.6427 3.26291e-13 -8.27602 12.1824 0.472707 -8.13383 12.7249 0.942622 -7.97978 13.2702 1.40975 -7.81389 -1.8867 -12.7158 -7.84407 -1.41885 -12.1766 -8.04592 -0.948448 -11.6399 -8.23335 -0.475498 -11.1058 -8.40636 -3.27391e-14 -10.5742 -8.56496 0.478047 -10.0452 -8.70914 0.958643 -9.51873 -8.8389 1.44179 -8.99481 -8.95424 1.92748 -8.47343 -9.05516 2.41572 -7.9546 -9.14167 2.90651 -7.43833 -9.21376 3.39985 -6.9246 -9.27143 3.89574 -6.41341 -9.31468 4.39418 -5.90478 -9.34352 4.89516 -5.3987 -9.35794 5.3987 -4.89516 -9.35794 5.90478 -4.39418 -9.34352 6.41341 -3.89574 -9.31468 6.9246 -3.39985 -9.27143 7.43833 -2.90651 -9.21376 7.9546 -2.41572 -9.14167 8.47343 -1.92748 -9.05516 8.99481 -1.44179 -8.95424 9.51873 -0.958643 -8.8389 10.0452 -0.478047 -8.70914 10.5742 4.375e-13 -8.56496 11.1058 0.475498 -8.40636 11.6399 0.948448 -8.23335 12.1766 1.41885 -8.04592 12.7158 1.8867 -7.84407 -2.36718 -12.1649 -7.87151 -1.89835 -11.6315 -8.10604 -1.42722 -11.1005 -8.32383 -0.953788 -10.5717 -8.52486 -0.478047 -10.0452 -8.70914 1.13667e-13 -9.52104 -8.87666 0.480353 -8.99918 -9.02744 0.963012 -8.47962 -9.16146 1.44798 -7.96237 -9.27873 1.93525 -7.44743 -9.37924 2.42483 -6.93479 -9.463 2.91671 -6.42446 -9.53001 3.4109 -5.91643 -9.58027 3.90739 -5.41071 -9.61378 4.40619 -4.9073 -9.63053 4.9073 -4.40619 -9.63053 5.41071 -3.90739 -9.61378 5.91643 -3.4109 -9.58027 6.42446 -2.91671 -9.53001 6.93479 -2.42483 -9.463 7.44743 -1.93525 -9.37924 7.96237 -1.44798 -9.27873 8.47962 -0.963012 -9.16146 8.99918 -0.480353 -9.02744 9.52104 5.37672e-13 -8.87666 10.0452 0.478047 -8.70914 10.5717 0.953788 -8.52486 11.1005 1.42722 -8.32383 11.6315 1.89835 -8.10604 12.1649 2.36718 -7.87151 -2.85117 -11.6176 -7.8962 -2.38113 -11.0898 -8.16016 -1.90903 -10.564 -8.40526 -1.43487 -10.0404 -8.6315 -0.958643 -9.51873 -8.8389 -0.480353 -8.99918 -9.02744 2.50991e-13 -8.48168 -9.19712 0.482416 -7.96626 -9.34795 0.966896 -7.45289 -9.47993 1.45344 -6.94159 -9.59305 1.94205 -6.43235 -9.68732 2.43271 -5.92517 -9.76274 2.92545 -5.42006 -9.8193 3.42024 -4.91701 -9.85701 3.9171 -4.41603 -9.87586 4.41603 -3.9171 -9.87586 4.91701 -3.42024 -9.85701 5.42006 -2.92545 -9.8193 5.92517 -2.43271 -9.76274 6.43235 -1.94205 -9.68732 6.94159 -1.45344 -9.59305 7.45289 -0.966896 -9.47993 7.96626 -0.482416 -9.34795 8.48168 6.21626e-13 -9.19712 8.99918 0.480353 -9.02744 9.51873 0.958643 -8.8389 10.0404 1.43487 -8.6315 10.564 1.90903 -8.40526 11.0898 2.38113 -8.16016 11.6176 2.85117 -7.8962 -3.33868 -11.0738 -7.91815 -2.86719 -10.5513 -8.20826 -2.39388 -10.0306 -8.47764 -1.91874 -9.51181 -8.7263 -1.44179 -8.99481 -8.95424 -0.963012 -8.47962 -9.16146 -0.482416 -7.96626 -9.34795 3.77351e-13 -7.45471 -9.51373 0.484237 -6.94499 -9.65878 0.970294 -6.43708 -9.78311 1.45817 -5.931 -9.88672 1.94787 -5.42674 -9.96961 2.43939 -4.92429 -10.0318 2.93273 -4.42367 -10.0732 3.42789 -3.92487 -10.0939 3.92487 -3.42789 -10.0939 4.42367 -2.93273 -10.0732 4.92429 -2.43939 -10.0318 5.42674 -1.94787 -9.96961 5.931 -1.45817 -9.88672 6.43708 -0.970294 -9.78311 6.94499 -0.484237 -9.65878 7.45471 6.94176e-13 -9.51373 7.96626 0.482416 -9.34795 8.47962 0.963012 -9.16146 8.99481 1.44179 -8.95424 9.51181 1.91874 -8.7263 10.0306 2.39388 -8.47764 10.5513 2.86719 -8.20826 11.0738 3.33868 -7.91815 -3.82972 -10.5334 -7.93736 -3.35652 -10.0161 -8.25034 -2.88175 -9.50028 -8.54097 -2.40541 -8.98607 -8.80925 -1.92748 -8.47343 -9.05516 -1.44798 -7.96237 -9.27873 -0.966896 -7.45289 -9.47993 -0.484237 -6.94499 -9.65878 4.94559e-13 -6.43866 -9.81527 0.485815 -5.93391 -9.94941 0.973207 -5.43074 -10.0612 1.46218 -4.92915 -10.1506 1.95273 -4.42913 -10.2177 2.44485 -3.9307 -10.2624 2.93856 -3.43384 -10.2848 3.43384 -2.93856 -10.2848 3.9307 -2.44485 -10.2624 4.42913 -1.95273 -10.2177 4.92915 -1.46218 -10.1506 5.43074 -0.973207 -10.0612 5.93391 -0.485815 -9.94941 6.43866 7.50584e-13 -9.81527 6.94499 0.484237 -9.65878 7.45289 0.966896 -9.47993 7.96237 1.44798 -9.27873 8.47343 1.92748 -9.05516 8.98607 2.40541 -8.80925 9.50028 2.88175 -8.54097 10.0161 3.35652 -8.25034 10.5334 3.82972 -7.93736 -4.32427 -9.99666 -7.95382 -3.84914 -9.48414 -8.28642 -3.37267 -8.97296 -8.59526 -2.89486 -8.46311 -8.88034 -2.41572 -7.9546 -9.14167 -1.93525 -7.44743 -9.37924 -1.45344 -6.94159 -9.59305 -0.970294 -6.43708 -9.78311 -0.485815 -5.93391 -9.94941 6.0087e-13 -5.43208 -10.092 0.48715 -4.93158 -10.2107 0.975635 -4.43241 -10.3058 1.46545 -3.93458 -10.377 1.95661 -3.43808 -10.4245 2.4491 -2.94292 -10.4483 2.94292 -2.4491 -10.4483 3.43808 -1.95661 -10.4245 3.93458 -1.46545 -10.377 4.43241 -0.975635 -10.3058 4.93158 -0.48715 -10.2107 5.43208 7.92111e-13 -10.092 5.93391 0.485815 -9.94941 6.43708 0.970294 -9.78311 6.94159 1.45344 -9.59305 7.44743 1.93525 -9.37924 7.9546 2.41572 -9.14167 8.46311 2.89486 -8.88034 8.97296 3.37267 -8.59526 9.48414 3.84914 -8.28642 9.99666 4.32427 -7.95382 -4.82234 -9.46339 -7.96754 -4.34502 -8.95548 -8.31648 -3.86661 -8.44867 -8.6405 -3.38711 -7.94295 -8.93959 -2.90651 -7.43833 -9.21376 -2.42483 -6.93479 -9.463 -1.94205 -6.43235 -9.68732 -1.45817 -5.931 -9.88672 -0.973207 -5.43074 -10.0612 -0.48715 -4.93158 -10.2107 6.98984e-13 -4.4335 -10.3354 0.488242 -3.93652 -10.4351 0.977577 -3.44063 -10.5098 1.468 -2.94584 -10.5597 1.95952 -2.45213 -10.5846 2.45213 -1.95952 -10.5846 2.94584 -1.468 -10.5597 3.44063 -0.977577 -10.5098 3.93652 -0.488242 -10.4351 4.4335 8.19903e-13 -10.3354 4.93158 0.48715 -10.2107 5.43074 0.973207 -10.0612 5.931 1.45817 -9.88672 6.43235 1.94205 -9.68732 6.93479 2.42483 -9.463 7.43833 2.90651 -9.21376 7.94295 3.38711 -8.93959 8.44867 3.86661 -8.6405 8.95548 4.34502 -8.31648 9.46339 4.82234 -7.96754 -5.32394 -8.93364 -7.97851 -4.84419 -8.4301 -8.34053 -4.36359 -7.92742 -8.67669 -3.88215 -7.42558 -8.98699 -3.39985 -6.9246 -9.27143 -2.91671 -6.42446 -9.53001 -2.43271 -5.92517 -9.76274 -1.94787 -5.42674 -9.96961 -1.46218 -4.92915 -10.1506 -0.975635 -4.43241 -10.3058 -0.488242 -3.93652 -10.4351 7.87379e-13 -3.44148 -10.5385 0.489092 -2.94729 -10.6161 0.979033 -2.45395 -10.6678 1.46982 -1.96146 -10.6936 1.96146 -1.46982 -10.6936 2.45395 -0.979033 -10.6678 2.94729 -0.489092 -10.6161 3.44148 8.33487e-13 -10.5385 3.93652 0.488242 -10.4351 4.43241 0.975635 -10.3058 4.92915 1.46218 -10.1506 5.42674 1.94787 -9.96961 5.92517 2.43271 -9.76274 6.42446 2.91671 -9.53001 6.9246 3.39985 -9.27143 7.42558 3.88215 -8.98699 7.92742 4.36359 -8.67669 8.4301 4.84419 -8.34053 8.93364 5.32394 -7.97851 -5.82905 -8.40741 -7.98675 -5.34663 -7.908 -8.35857 -4.86361 -7.4092 -8.70383 -4.37998 -6.911 -9.02254 -3.89574 -6.41341 -9.31468 -3.4109 -5.91643 -9.58027 -2.92545 -5.42006 -9.8193 -2.43939 -4.92429 -10.0318 -1.95273 -4.42913 -10.2177 -1.46545 -3.93458 -10.377 -0.977577 -3.44063 -10.5098 -0.489092 -2.94729 -10.6161 8.66421e-13 -2.45456 -10.6957 0.489699 -1.96244 -10.7489 0.980004 -1.47092 -10.7754 1.47092 -0.980004 -10.7754 1.96244 -0.489699 -10.7489 2.45456 8.3308e-13 -10.6957 2.94729 0.489092 -10.6161 3.44063 0.977577 -10.5098 3.93458 1.46545 -10.377 4.42913 1.95273 -10.2177 4.92429 2.43939 -10.0318 5.42006 2.92545 -9.8193 5.91643 3.4109 -9.58027 6.41341 3.89574 -9.31468 6.911 4.37998 -9.02254 7.4092 4.86361 -8.70383 7.908 5.34663 -8.35857 8.40741 5.82905 -7.98675 -6.33768 -7.8847 -7.99223 -5.85235 -7.38917 -8.37059 -5.36666 -6.89401 -8.72193 -4.8806 -6.39921 -9.04624 -4.39418 -5.90478 -9.34352 -3.90739 -5.41071 -9.61378 -3.42024 -4.91701 -9.85701 -2.93273 -4.42367 -10.0732 -2.44485 -3.9307 -10.2624 -1.95661 -3.43808 -10.4245 -1.468 -2.94584 -10.5597 -0.979033 -2.45395 -10.6678 -0.489699 -1.96244 -10.7489 9.37089e-13 -1.47128 -10.8029 0.490063 -0.980489 -10.8299 0.980489 -0.490063 -10.8299 1.47128 8.19651e-13 -10.8029 1.96244 0.489699 -10.7489 2.45395 0.979033 -10.6678 2.94584 1.468 -10.5597 3.43808 1.95661 -10.4245 3.9307 2.44485 -10.2624 4.42367 2.93273 -10.0732 4.91701 3.42024 -9.85701 5.41071 3.90739 -9.61378 5.90478 4.39418 -9.34352 6.39921 4.8806 -9.04624 6.89401 5.36666 -8.72193 7.38917 5.85235 -8.37059 7.8847 6.33768 -7.99223 -6.84983 -7.3655 -7.99498 -6.36135 -6.87362 -8.37661 -5.87274 -6.38186 -8.73098 -5.38401 -5.89022 -9.05809 -4.89516 -5.3987 -9.35794 -4.40619 -4.9073 -9.63053 -3.9171 -4.41603 -9.87586 -3.42789 -3.92487 -10.0939 -2.93856 -3.43384 -10.2848 -2.4491 -2.94292 -10.4483 -1.95952 -2.45213 -10.5846 -1.46982 -1.96146 -10.6936 -0.980004 -1.47092 -10.7754 -0.490063 -0.980489 -10.8299 9.98679e-13 -0.490184 -10.8572 0.490184 7.92639e-13 -10.8572 0.980489 0.490063 -10.8299 1.47092 0.980004 -10.7754 1.96146 1.46982 -10.6936 2.45213 1.95952 -10.5846 2.94292 2.4491 -10.4483 3.43384 2.93856 -10.2848 3.92487 3.42789 -10.0939 4.41603 3.9171 -9.87586 4.9073 4.40619 -9.63053 5.3987 4.89516 -9.35794 5.89022 5.38401 -9.05809 6.38186 5.87274 -8.73098 6.87362 6.36135 -8.37661 7.3655 6.84983 -7.99498 -7.3655 -6.84983 -7.99498 -6.87362 -6.36135 -8.37661 -6.38186 -5.87274 -8.73098 -5.89022 -5.38401 -9.05809 -5.3987 -4.89516 -9.35794 -4.9073 -4.40619 -9.63053 -4.41603 -3.9171 -9.87586 -3.92487 -3.42789 -10.0939 -3.43384 -2.93856 -10.2848 -2.94292 -2.4491 -10.4483 -2.45213 -1.95952 -10.5846 -1.96146 -1.46982 -10.6936 -1.47092 -0.980004 -10.7754 -0.980489 -0.490063 -10.8299 -0.490184 7.50511e-13 -10.8572 1.04918e-12 0.490184 -10.8572 0.490063 0.980489 -10.8299 0.980004 1.47092 -10.7754 1.46982 1.96146 -10.6936 1.95952 2.45213 -10.5846 2.4491 2.94292 -10.4483 2.93856 3.43384 -10.2848 3.42789 3.92487 -10.0939 3.9171 4.41603 -9.87586 4.40619 4.9073 -9.63053 4.89516 5.3987 -9.35794 5.38401 5.89022 -9.05809 5.87274 6.38186 -8.73098 6.36135 6.87362 -8.37661 6.84983 7.3655 -7.99498 -7.8847 -6.33768 -7.99223 -7.38917 -5.85235 -8.37059 -6.89401 -5.36666 -8.72193 -6.39921 -4.8806 -9.04624 -5.90478 -4.39418 -9.34352 -5.41071 -3.90739 -9.61378 -4.91701 -3.42024 -9.85701 -4.42367 -2.93273 -10.0732 -3.9307 -2.44485 -10.2624 -3.43808 -1.95661 -10.4245 -2.94584 -1.468 -10.5597 -2.45395 -0.979033 -10.6678 -1.96244 -0.489699 -10.7489 -1.47128 6.98108e-13 -10.8029 -0.980489 0.490063 -10.8299 -0.490063 0.980489 -10.8299 1.09323e-12 1.47128 -10.8029 0.489699 1.96244 -10.7489 0.979033 2.45395 -10.6678 1.468 2.94584 -10.5597 1.95661 3.43808 -10.4245 2.44485 3.9307 -10.2624 2.93273 4.42367 -10.0732 3.42024 4.91701 -9.85701 3.90739 5.41071 -9.61378 4.39418 5.90478 -9.34352 4.8806 6.39921 -9.04624 5.36666 6.89401 -8.72193 5.85235 7.38917 -8.37059 6.33768 7.8847 -7.99223 -8.40741 -5.82905 -7.98675 -7.908 -5.34663 -8.35857 -7.4092 -4.86361 -8.70383 -6.911 -4.37998 -9.02254 -6.41341 -3.89574 -9.31468 -5.91643 -3.4109 -9.58027 -5.42006 -2.92545 -9.8193 -4.92429 -2.43939 -10.0318 -4.42913 -1.95273 -10.2177 -3.93458 -1.46545 -10.377 -3.44063 -0.977577 -10.5098 -2.94729 -0.489092 -10.6161 -2.45456 6.386e-13 -10.6957 -1.96244 0.489699 -10.7489 -1.47092 0.980004 -10.7754 -0.980004 1.47092 -10.7754 -0.489699 1.96244 -10.7489 1.1349e-12 2.45456 -10.6957 0.489092 2.94729 -10.6161 0.977577 3.44063 -10.5098 1.46545 3.93458 -10.377 1.95273 4.42913 -10.2177 2.43939 4.92429 -10.0318 2.92545 5.42006 -9.8193 3.4109 5.91643 -9.58027 3.89574 6.41341 -9.31468 4.37998 6.911 -9.02254 4.86361 7.4092 -8.70383 5.34663 7.908 -8.35857 5.82905 8.40741 -7.98675 -8.93364 -5.32394 -7.97851 -8.4301 -4.84419 -8.34053 -7.92742 -4.36359 -8.67669 -7.42558 -3.88215 -8.98699 -6.9246 -3.39985 -9.27143 -6.42446 -2.91671 -9.53001 -5.92517 -2.43271 -9.76274 -5.42674 -1.94787 -9.96961 -4.92915 -1.46218 -10.1506 -4.43241 -0.975635 -10.3058 -3.93652 -0.488242 -10.4351 -3.44148 5.72598e-13 -10.5385 -2.94729 0.489092 -10.6161 -2.45395 0.979033 -10.6678 -1.96146 1.46982 -10.6936 -1.46982 1.96146 -10.6936 -0.979033 2.45395 -10.6678 -0.489092 2.94729 -10.6161 1.17405e-12 3.44148 -10.5385 0.488242 3.93652 -10.4351 0.975635 4.43241 -10.3058 1.46218 4.92915 -10.1506 1.94787 5.42674 -9.96961 2.43271 5.92517 -9.76274 2.91671 6.42446 -9.53001 3.39985 6.9246 -9.27143 3.88215 7.42558 -8.98699 4.36359 7.92742 -8.67669 4.84419 8.4301 -8.34053 5.32394 8.93364 -7.97851 -9.46339 -4.82234 -7.96754 -8.95548 -4.34502 -8.31648 -8.44867 -3.86661 -8.6405 -7.94295 -3.38711 -8.93959 -7.43833 -2.90651 -9.21376 -6.93479 -2.42483 -9.463 -6.43235 -1.94205 -9.68732 -5.931 -1.45817 -9.88672 -5.43074 -0.973207 -10.0612 -4.93158 -0.48715 -10.2107 -4.4335 5.00266e-13 -10.3354 -3.93652 0.488242 -10.4351 -3.44063 0.977577 -10.5098 -2.94584 1.468 -10.5597 -2.45213 1.95952 -10.5846 -1.95952 2.45213 -10.5846 -1.468 2.94584 -10.5597 -0.977577 3.44063 -10.5098 -0.488242 3.93652 -10.4351 1.21073e-12 4.4335 -10.3354 0.48715 4.93158 -10.2107 0.973207 5.43074 -10.0612 1.45817 5.931 -9.88672 1.94205 6.43235 -9.68732 2.42483 6.93479 -9.463 2.90651 7.43833 -9.21376 3.38711 7.94295 -8.93959 3.86661 8.44867 -8.6405 4.34502 8.95548 -8.31648 4.82234 9.46339 -7.96754 -9.99666 -4.32427 -7.95382 -9.48414 -3.84914 -8.28642 -8.97296 -3.37267 -8.59526 -8.46311 -2.89486 -8.88034 -7.9546 -2.41572 -9.14167 -7.44743 -1.93525 -9.37924 -6.94159 -1.45344 -9.59305 -6.43708 -0.970294 -9.78311 -5.93391 -0.485815 -9.94941 -5.43208 4.19553e-13 -10.092 -4.93158 0.48715 -10.2107 -4.43241 0.975635 -10.3058 -3.93458 1.46545 -10.377 -3.43808 1.95661 -10.4245 -2.94292 2.4491 -10.4483 -2.4491 2.94292 -10.4483 -1.95661 3.43808 -10.4245 -1.46545 3.93458 -10.377 -0.975635 4.43241 -10.3058 -0.48715 4.93158 -10.2107 1.24517e-12 5.43208 -10.092 0.485815 5.93391 -9.94941 0.970294 6.43708 -9.78311 1.45344 6.94159 -9.59305 1.93525 7.44743 -9.37924 2.41572 7.9546 -9.14167 2.89486 8.46311 -8.88034 3.37267 8.97296 -8.59526 3.84914 9.48414 -8.28642 4.32427 9.99666 -7.95382 -10.5334 -3.82972 -7.93736 -10.0161 -3.35652 -8.25034 -9.50028 -2.88175 -8.54097 -8.98607 -2.40541 -8.80925 -8.47343 -1.92748 -9.05516 -7.96237 -1.44798 -9.27873 -7.45289 -0.966896 -9.47993 -6.94499 -0.484237 -9.65878 -6.43866 3.33067e-13 -9.81527 -5.93391 0.485815 -9.94941 -5.43074 0.973207 -10.0612 -4.92915 1.46218 -10.1506 -4.42913 1.95273 -10.2177 -3.9307 2.44485 -10.2624 -3.43384 2.93856 -10.2848 -2.93856 3.43384 -10.2848 -2.44485 3.9307 -10.2624 -1.95273 4.42913 -10.2177 -1.46218 4.92915 -10.1506 -0.973207 5.43074 -10.0612 -0.485815 5.93391 -9.94941 1.27676e-12 6.43866 -9.81527 0.484237 6.94499 -9.65878 0.966896 7.45289 -9.47993 1.44798 7.96237 -9.27873 1.92748 8.47343 -9.05516 2.40541 8.98607 -8.80925 2.88175 9.50028 -8.54097 3.35652 10.0161 -8.25034 3.82972 10.5334 -7.93736 -11.0738 -3.33868 -7.91815 -10.5513 -2.86719 -8.20826 -10.0306 -2.39388 -8.47764 -9.51181 -1.91874 -8.7263 -8.99481 -1.44179 -8.95424 -8.47962 -0.963012 -9.16146 -7.96626 -0.482416 -9.34795 -7.45471 2.3892e-13 -9.51373 -6.94499 0.484237 -9.65878 -6.43708 0.970294 -9.78311 -5.931 1.45817 -9.88672 -5.42674 1.94787 -9.96961 -4.92429 2.43939 -10.0318 -4.42367 2.93273 -10.0732 -3.92487 3.42789 -10.0939 -3.42789 3.92487 -10.0939 -2.93273 4.42367 -10.0732 -2.43939 4.92429 -10.0318 -1.94787 5.42674 -9.96961 -1.45817 5.931 -9.88672 -0.970294 6.43708 -9.78311 -0.484237 6.94499 -9.65878 1.30695e-12 7.45471 -9.51373 0.482416 7.96626 -9.34795 0.963012 8.47962 -9.16146 1.44179 8.99481 -8.95424 1.91874 9.51181 -8.7263 2.39388 10.0306 -8.47764 2.86719 10.5513 -8.20826 3.33868 11.0738 -7.91815 -11.6176 -2.85117 -7.8962 -11.0898 -2.38113 -8.16016 -10.564 -1.90903 -8.40526 -10.0404 -1.43487 -8.6315 -9.51873 -0.958643 -8.8389 -8.99918 -0.480353 -9.02744 -8.48168 1.35614e-13 -9.19712 -7.96626 0.482416 -9.34795 -7.45289 0.966896 -9.47993 -6.94159 1.45344 -9.59305 -6.43235 1.94205 -9.68732 -5.92517 2.43271 -9.76274 -5.42006 2.92545 -9.8193 -4.91701 3.42024 -9.85701 -4.41603 3.9171 -9.87586 -3.9171 4.41603 -9.87586 -3.42024 4.91701 -9.85701 -2.92545 5.42006 -9.8193 -2.43271 5.92517 -9.76274 -1.94205 6.43235 -9.68732 -1.45344 6.94159 -9.59305 -0.966896 7.45289 -9.47993 -0.482416 7.96626 -9.34795 1.33338e-12 8.48168 -9.19712 0.480353 8.99918 -9.02744 0.958643 9.51873 -8.8389 1.43487 10.0404 -8.6315 1.90903 10.564 -8.40526 2.38113 11.0898 -8.16016 2.85117 11.6176 -7.8962 -12.1649 -2.36718 -7.87151 -11.6315 -1.89835 -8.10604 -11.1005 -1.42722 -8.32383 -10.5717 -0.953788 -8.52486 -10.0452 -0.478047 -8.70914 -9.52104 3.07532e-14 -8.87666 -8.99918 0.480353 -9.02744 -8.47962 0.963012 -9.16146 -7.96237 1.44798 -9.27873 -7.44743 1.93525 -9.37924 -6.93479 2.42483 -9.463 -6.42446 2.91671 -9.53001 -5.91643 3.4109 -9.58027 -5.41071 3.90739 -9.61378 -4.9073 4.40619 -9.63053 -4.40619 4.9073 -9.63053 -3.90739 5.41071 -9.61378 -3.4109 5.91643 -9.58027 -2.91671 6.42446 -9.53001 -2.42483 6.93479 -9.463 -1.93525 7.44743 -9.37924 -1.44798 7.96237 -9.27873 -0.963012 8.47962 -9.16146 -0.480353 8.99918 -9.02744 1.35936e-12 9.52104 -8.87666 0.478047 10.0452 -8.70914 0.953788 10.5717 -8.52486 1.42722 11.1005 -8.32383 1.89835 11.6315 -8.10604 2.36718 12.1649 -7.87151 -12.7158 -1.8867 -7.84407 -12.1766 -1.41885 -8.04592 -11.6399 -0.948448 -8.23335 -11.1058 -0.475498 -8.40636 -10.5742 -8.15459e-14 -8.56496 -10.0452 0.478047 -8.70914 -9.51873 0.958643 -8.8389 -8.99481 1.44179 -8.95424 -8.47343 1.92748 -9.05516 -7.9546 2.41572 -9.14167 -7.43833 2.90651 -9.21376 -6.9246 3.39985 -9.27143 -6.41341 3.89574 -9.31468 -5.90478 4.39418 -9.34352 -5.3987 4.89516 -9.35794 -4.89516 5.3987 -9.35794 -4.39418 5.90478 -9.34352 -3.89574 6.41341 -9.31468 -3.39985 6.9246 -9.27143 -2.90651 7.43833 -9.21376 -2.41572 7.9546 -9.14167 -1.92748 8.47343 -9.05516 -1.44179 8.99481 -8.95424 -0.958643 9.51873 -8.8389 -0.478047 10.0452 -8.70914 1.37979e-12 10.5742 -8.56496 0.475498 11.1058 -8.40636 0.948448 11.6399 -8.23335 1.41885 12.1766 -8.04592 1.8867 12.7158 -7.84407 -13.2702 -1.40975 -7.81389 -12.7249 -0.942622 -7.97978 -12.1824 -0.472707 -8.13383 -11.6427 -1.9762e-13 -8.27602 -11.1058 0.475498 -8.40636 -10.5717 0.953788 -8.52486 -10.0404 1.43487 -8.6315 -9.51181 1.91874 -8.7263 -8.98607 2.40541 -8.80925 -8.46311 2.89486 -8.88034 -7.94295 3.38711 -8.93959 -7.42558 3.88215 -8.98699 -6.911 4.37998 -9.02254 -6.39921 4.8806 -9.04624 -5.89022 5.38401 -9.05809 -5.38401 5.89022 -9.05809 -4.8806 6.39921 -9.04624 -4.37998 6.911 -9.02254 -3.88215 7.42558 -8.98699 -3.38711 7.94295 -8.93959 -2.89486 8.46311 -8.88034 -2.40541 8.98607 -8.80925 -1.91874 9.51181 -8.7263 -1.43487 10.0404 -8.6315 -0.953788 10.5717 -8.52486 -0.475498 11.1058 -8.40636 1.39933e-12 11.6427 -8.27602 0.472707 12.1824 -8.13383 0.942622 12.7249 -7.97978 1.40975 13.2702 -7.81389 -13.8281 -0.936311 -7.78096 -13.2765 -0.469673 -7.90763 -12.7279 -3.25073e-13 -8.02525 -12.1824 0.472707 -8.13383 -11.6399 0.948448 -8.23335 -11.1005 1.42722 -8.32383 -10.564 1.90903 -8.40526 -10.0306 2.39388 -8.47764 -9.50028 2.88175 -8.54097 -8.97296 3.37267 -8.59526 -8.44867 3.86661 -8.6405 -7.92742 4.36359 -8.67669 -7.4092 4.86361 -8.70383 -6.89401 5.36666 -8.72193 -6.38186 5.87274 -8.73098 -5.87274 6.38186 -8.73098 -5.36666 6.89401 -8.72193 -4.86361 7.4092 -8.70383 -4.36359 7.92742 -8.67669 -3.86661 8.44867 -8.6405 -3.37267 8.97296 -8.59526 -2.88175 9.50028 -8.54097 -2.39388 10.0306 -8.47764 -1.90903 10.564 -8.40526 -1.42722 11.1005 -8.32383 -0.948448 11.6399 -8.23335 -0.472707 12.1824 -8.13383 1.41753e-12 12.7279 -8.02525 0.469673 13.2765 -7.90763 0.936311 13.8281 -7.78096 -14.3895 -0.466396 -7.7453 -13.8314 -4.55885e-13 -7.82947 -13.2765 0.469673 -7.90763 -12.7249 0.942622 -7.97978 -12.1766 1.41885 -8.04592 -11.6315 1.89835 -8.10604 -11.0898 2.38113 -8.16016 -10.5513 2.86719 -8.20826 -10.0161 3.35652 -8.25034 -9.48414 3.84914 -8.28642 -8.95548 4.34502 -8.31648 -8.4301 4.84419 -8.34053 -7.908 5.34663 -8.35857 -7.38917 5.85235 -8.37059 -6.87362 6.36135 -8.37661 -6.36135 6.87362 -8.37661 -5.85235 7.38917 -8.37059 -5.34663 7.908 -8.35857 -4.84419 8.4301 -8.34053 -4.34502 8.95548 -8.31648 -3.84914 9.48414 -8.28642 -3.35652 10.0161 -8.25034 -2.86719 10.5513 -8.20826 -2.38113 11.0898 -8.16016 -1.89835 11.6315 -8.10604 -1.41885 12.1766 -8.04592 -0.942622 12.7249 -7.97978 -0.469673 13.2765 -7.90763 1.43086e-12 13.8314 -7.82947 0.466396 14.3895 -7.7453 -14.9545 -5.91527e-13 -7.70688 -14.3895 0.466396 -7.7453 -13.8281 0.936311 -7.78096 -13.2702 1.40975 -7.81389 -12.7158 1.8867 -7.84407 -12.1649 2.36718 -7.87151 -11.6176 2.85117 -7.8962 -11.0738 3.33868 -7.91815 -10.5334 3.82972 -7.93736 -9.99666 4.32427 -7.95382 -9.46339 4.82234 -7.96754 -8.93364 5.32394 -7.97851 -8.40741 5.82905 -7.98675 -7.8847 6.33768 -7.99223 -7.3655 6.84983 -7.99498 -6.84983 7.3655 -7.99498 -6.33768 7.8847 -7.99223 -5.82905 8.40741 -7.98675 -5.32394 8.93364 -7.97851 -4.82234 9.46339 -7.96754 -4.32427 9.99666 -7.95382 -3.82972 10.5334 -7.93736 -3.33868 11.0738 -7.91815 -2.85117 11.6176 -7.8962 -2.36718 12.1649 -7.87151 -1.8867 12.7158 -7.84407 -1.40975 13.2702 -7.81389 -0.936311 13.8281 -7.78096 -0.466396 14.3895 -7.7453 1.44329e-12 14.9545 -7.70688 -2.43272e-12 -14.2807 -19.9012 0.558987 -13.8548 -20.0463 1.11322 -13.4242 -20.1811 1.6627 -12.9888 -20.3054 2.20743 -12.5486 -20.4195 2.7474 -12.1037 -20.5231 3.28262 -11.6541 -20.6164 3.81308 -11.1997 -20.6993 4.3388 -10.7405 -20.7719 4.85976 -10.2766 -20.834 5.37596 -9.8079 -20.8859 5.88741 -9.33448 -20.9273 6.39411 -8.8563 -20.9584 6.89606 -8.37337 -20.9791 7.39325 -7.88569 -20.9895 7.88569 -7.39325 -20.9895 8.37337 -6.89606 -20.9791 8.8563 -6.39411 -20.9584 9.33448 -5.88741 -20.9273 9.8079 -5.37596 -20.8859 10.2766 -4.85976 -20.834 10.7405 -4.3388 -20.7719 11.1997 -3.81308 -20.6993 11.6541 -3.28262 -20.6164 12.1037 -2.7474 -20.5231 12.5486 -2.20743 -20.4195 12.9888 -1.6627 -20.3054 13.4242 -1.11322 -20.1811 13.8548 -0.558987 -20.0463 14.2807 4.0723e-13 -19.9012 -0.558987 -13.8548 -20.0463 -2.12893e-12 -13.4197 -20.1878 0.554561 -12.9803 -20.3192 1.1047 -12.5363 -20.4404 1.65041 -12.088 -20.5516 2.19169 -11.6352 -20.6526 2.72855 -11.178 -20.7436 3.26098 -10.7164 -20.8244 3.78899 -10.2503 -20.8951 4.31257 -9.77987 -20.9558 4.83173 -9.30497 -21.0063 5.34646 -8.82565 -21.0467 5.85676 -8.3419 -21.077 6.36264 -7.85372 -21.0972 6.86409 -7.36112 -21.1074 7.36112 -6.86409 -21.1074 7.85372 -6.36264 -21.0972 8.3419 -5.85676 -21.077 8.82565 -5.34646 -21.0467 9.30497 -4.83173 -21.0063 9.77987 -4.31257 -20.9558 10.2503 -3.78899 -20.8951 10.7164 -3.26098 -20.8244 11.178 -2.72855 -20.7436 11.6352 -2.19169 -20.6526 12.088 -1.65041 -20.5516 12.5363 -1.1047 -20.4404 12.9803 -0.554561 -20.3192 13.4197 4.89853e-13 -20.1878 13.8548 0.558987 -20.0463 -1.11322 -13.4242 -20.1811 -0.554561 -12.9803 -20.3192 -1.83287e-12 -12.5322 -20.4474 0.550463 -12.0801 -20.5658 1.09683 -11.6239 -20.6743 1.6391 -11.1636 -20.7729 2.17727 -10.6992 -20.8617 2.71134 -10.2307 -20.9406 3.24131 -9.75807 -21.0096 3.76719 -9.28137 -21.0688 4.28897 -8.80057 -21.1181 4.80665 -8.31567 -21.1576 5.32023 -7.82668 -21.1872 5.82972 -7.33358 -21.2069 6.3351 -6.83639 -21.2168 6.83639 -6.3351 -21.2168 7.33358 -5.82972 -21.2069 7.82668 -5.32023 -21.1872 8.31567 -4.80665 -21.1576 8.80057 -4.28897 -21.1181 9.28137 -3.76719 -21.0688 9.75807 -3.24131 -21.0096 10.2307 -2.71134 -20.9406 10.6992 -2.17727 -20.8617 11.1636 -1.6391 -20.7729 11.6239 -1.09683 -20.6743 12.0801 -0.550463 -20.5658 12.5322 5.64204e-13 -20.4474 12.9803 0.554561 -20.3192 13.4242 1.11322 -20.1811 -1.6627 -12.9888 -20.3054 -1.1047 -12.5363 -20.4404 -0.550463 -12.0801 -20.5658 -1.55313e-12 -11.6201 -20.6815 0.546693 -11.1564 -20.7875 1.08962 -10.6889 -20.8839 1.62877 -10.2176 -20.9707 2.16415 -9.7425 -21.0478 2.69577 -9.26367 -21.1153 3.22361 -8.78106 -21.1732 3.74768 -8.29469 -21.2214 4.26799 -7.80455 -21.2599 4.78452 -7.31064 -21.2889 5.29728 -6.81295 -21.3081 5.80628 -6.3115 -21.3178 6.3115 -5.80628 -21.3178 6.81295 -5.29728 -21.3081 7.31064 -4.78452 -21.2889 7.80455 -4.26799 -21.2599 8.29469 -3.74768 -21.2214 8.78106 -3.22361 -21.1732 9.26367 -2.69577 -21.1153 9.7425 -2.16415 -21.0478 10.2176 -1.62877 -20.9707 10.6889 -1.08962 -20.8839 11.1564 -0.546693 -20.7875 11.6201 6.26672e-13 -20.6815 12.0801 0.550463 -20.5658 12.5363 1.1047 -20.4404 12.9888 1.6627 -20.3054 -2.20743 -12.5486 -20.4195 -1.65041 -12.088 -20.5516 -1.09683 -11.6239 -20.6743 -0.546693 -11.1564 -20.7875 -1.28306e-12 -10.6854 -20.8913 0.543251 -10.211 -20.9857 1.08306 -9.73316 -21.0706 1.61943 -9.25187 -21.1461 2.15235 -8.76713 -21.2122 2.68183 -8.27896 -21.2688 3.20787 -7.78734 -21.316 3.73047 -7.29228 -21.3537 4.24963 -6.79377 -21.3821 4.76534 -6.29183 -21.4009 5.27761 -5.78644 -21.4104 5.78644 -5.27761 -21.4104 6.29183 -4.76534 -21.4009 6.79377 -4.24963 -21.3821 7.29228 -3.73047 -21.3537 7.78734 -3.20787 -21.316 8.27896 -2.68183 -21.2688 8.76713 -2.15235 -21.2122 9.25187 -1.61943 -21.1461 9.73316 -1.08306 -21.0706 10.211 -0.543251 -20.9857 10.6854 6.78313e-13 -20.8913 11.1564 0.546693 -20.7875 11.6239 1.09683 -20.6743 12.088 1.65041 -20.5516 12.5486 2.20743 -20.4195 -2.7474 -12.1037 -20.5231 -2.19169 -11.6352 -20.6526 -1.6391 -11.1636 -20.7729 -1.08962 -10.6889 -20.8839 -0.543251 -10.211 -20.9857 -1.0254e-12 -9.73004 -21.0782 0.540137 -9.24597 -21.1615 1.07716 -8.75877 -21.2355 1.61107 -8.26847 -21.3002 2.14186 -7.77504 -21.3558 2.66954 -7.27851 -21.402 3.19411 -6.77886 -21.439 3.71556 -6.27609 -21.4668 4.23389 -5.77021 -21.4853 4.74911 -5.26122 -21.4945 5.26122 -4.74911 -21.4945 5.77021 -4.23389 -21.4853 6.27609 -3.71556 -21.4668 6.77886 -3.19411 -21.439 7.27851 -2.66954 -21.402 7.77504 -2.14186 -21.3558 8.26847 -1.61107 -21.3002 8.75877 -1.07716 -21.2355 9.24597 -0.540137 -21.1615 9.73004 7.22732e-13 -21.0782 10.211 0.543251 -20.9857 10.6889 1.08962 -20.8839 11.1636 1.6391 -20.7729 11.6352 2.19169 -20.6526 12.1037 2.7474 -20.5231 -3.28262 -11.6541 -20.6164 -2.72855 -11.178 -20.7436 -2.17727 -10.6992 -20.8617 -1.62877 -10.2176 -20.9707 -1.08306 -9.73316 -21.0706 -0.540137 -9.24597 -21.1615 -7.80303e-13 -8.75599 -21.2432 0.53735 -8.26322 -21.3159 1.07191 -7.76767 -21.3795 1.60369 -7.26933 -21.434 2.13268 -6.7682 -21.4794 2.65889 -6.26429 -21.5158 3.1823 -5.75759 -21.543 3.70293 -5.24811 -21.5612 4.22078 -4.73584 -21.5703 4.73584 -4.22078 -21.5703 5.24811 -3.70293 -21.5612 5.75759 -3.1823 -21.543 6.26429 -2.65889 -21.5158 6.7682 -2.13268 -21.4794 7.26933 -1.60369 -21.434 7.76767 -1.07191 -21.3795 8.26322 -0.53735 -21.3159 8.75599 7.55989e-13 -21.2432 9.24597 0.540137 -21.1615 9.73316 1.08306 -21.0706 10.2176 1.62877 -20.9707 10.6992 2.17727 -20.8617 11.178 2.72855 -20.7436 11.6541 3.28262 -20.6164 -3.81308 -11.1997 -20.6993 -3.26098 -10.7164 -20.8244 -2.71134 -10.2307 -20.9406 -2.16415 -9.7425 -21.0478 -1.61943 -9.25187 -21.1461 -1.07716 -8.75877 -21.2355 -0.53735 -8.26322 -21.3159 -5.46978e-13 -7.76521 -21.3874 0.534891 -7.26474 -21.45 1.06732 -6.76181 -21.5036 1.5973 -6.25642 -21.5483 2.12481 -5.74858 -21.584 2.64987 -5.23827 -21.6108 3.17247 -4.72551 -21.6287 3.69261 -4.21029 -21.6376 4.21029 -3.69261 -21.6376 4.72551 -3.17247 -21.6287 5.23827 -2.64987 -21.6108 5.74858 -2.12481 -21.584 6.25642 -1.5973 -21.5483 6.76181 -1.06732 -21.5036 7.26474 -0.534891 -21.45 7.76521 7.80636e-13 -21.3874 8.26322 0.53735 -21.3159 8.75877 1.07716 -21.2355 9.25187 1.61943 -21.1461 9.7425 2.16415 -21.0478 10.2307 2.71134