<?xml version="1.0"?> 
<VTKFile type="StructuredGrid" version="0.1"> 
<StructuredGrid WholeExtent="0 14 0 14 0 29"> 
<Piece Extent="0 14 0 14 0 29"> 
<PointData>
<DataArray type="Float32" Name="efield" format="ascii" NumberOfComponents="3"> 
0 0 -0.0939036 0 1.07249e-17 -0.0832149 0 1.64904e-17 -0.0724972 0 8.37896e-18 -0.0617504 0 6.25845e-18 -0.0509746 0 1.35098e-17 -0.0401698 0 3.02576e-18 -0.0293359 0 3.52853e-18 -0.0184729 0 3.12023e-18 -0.00877237 0 4.74396e-19 -0.00142568 0 -5.57531e-19 0.00356716 0 -2.74376e-18 0.00620614 0 -1.80983e-18 0.00649128 0 -1.75476e-18 0.00442257 0 0 0 7.2316e-18 7.2316e-18 -0.101395 2.86041e-18 6.42866e-18 -0.0913918 6.76894e-18 2.37466e-17 -0.08105 4.06957e-18 1.23809e-17 -0.0703701 2.69422e-18 1.63573e-17 -0.0593521 1.67602e-18 1.72419e-17 -0.047996 1.38368e-18 1.20285e-17 -0.0363019 6.33244e-19 2.60605e-18 -0.0242696 4.35331e-19 4.95319e-18 -0.013316 3.54958e-19 1.74495e-18 -0.00485795 -2.11032e-20 -5.29347e-19 0.00110463 -9.15622e-20 -7.00517e-19 0.00457172 -2.09928e-19 -3.74281e-20 0.00554331 6.45098e-20 -5.26309e-19 0.0040194 0 0 0 2.09899e-17 2.09899e-17 -0.107735 1.12767e-17 1.85669e-17 -0.0983106 3.82118e-18 1.32908e-17 -0.0882869 8.27202e-18 1.6754e-17 -0.0776637 1.09637e-17 1.97281e-17 -0.0664408 7.23677e-18 2.32359e-17 -0.0546183 9.83432e-19 9.52829e-18 -0.0421962 2.80813e-18 7.1265e-18 -0.0291745 5.06524e-19 3.37884e-18 -0.0171606 1.19165e-18 2.47345e-18 -0.00776217 3.19487e-20 4.8507e-19 -0.000979038 -1.16187e-19 -5.20927e-19 0.00318874 1.27966e-19 -2.00198e-18 0.00474118 -2.94024e-19 -1.07006e-18 0.00367826 0 0 0 2.05005e-17 2.05005e-17 -0.112921 1.85814e-17 1.91823e-17 -0.103972 1.55729e-17 2.03746e-17 -0.0942081 1.24524e-17 2.1427e-17 -0.0836311 6.49464e-18 1.39521e-17 -0.0722406 1.05208e-17 1.0501e-17 -0.0600365 4.54013e-18 7.92955e-18 -0.0470188 2.27118e-18 8.0345e-18 -0.0331876 8.82889e-19 6.23212e-18 -0.0203062 1.07373e-19 1.84759e-18 -0.0101383 1.43184e-19 7.34474e-19 -0.00268386 -1.52004e-19 -8.69071e-19 0.00205722 -1.53717e-19 -1.26687e-18 0.00408489 -1.43136e-19 -1.00193e-18 0.00339915 0 0 0 1.34425e-17 1.34425e-17 -0.116955 -8.1455e-19 1.63506e-18 -0.108374 8.92401e-18 1.56584e-17 -0.0988134 8.25038e-18 1.31687e-17 -0.0882725 1.19801e-17 1.43868e-17 -0.0767515 0 0 -0.0642506 7.11212e-18 1.0698e-17 -0.0507697 1.4951e-18 2.89888e-18 -0.0363088 3.32063e-18 4.32537e-18 -0.0227528 1.04431e-18 1.72849e-18 -0.0119865 1.11343e-19 4.10325e-19 -0.00400983 -7.2315e-20 -3.9172e-20 0.00117714 -2.19842e-19 -1.13161e-19 0.00357444 -3.91736e-19 -1.91448e-19 0.00318206 0 0 0 2.65909e-17 2.65909e-17 -0.119837 2.39668e-17 2.53498e-17 -0.111519 2.04862e-17 2.49217e-17 -0.102103 2.31196e-17 2.70875e-17 -0.0915877 7.94397e-18 9.44733e-18 -0.0799736 7.65332e-18 6.24824e-18 -0.0672607 6.09057e-18 4.80573e-18 -0.0534489 6.96792e-18 9.54677e-18 -0.0385383 6.43722e-18 6.01804e-18 -0.0245004 9.51196e-19 1.96769e-18 -0.0133066 9.28599e-19 1.09649e-18 -0.00495696 -9.36113e-20 -6.29909e-20 0.000548518 -7.29276e-19 -4.75732e-19 0.00320984 -4.07654e-19 -4.92522e-19 0.003027 0 0 0 1.32121e-17 1.32121e-17 -0.121566 1.2039e-17 1.23975e-17 -0.113406 -4.88836e-19 6.06532e-19 -0.104077 1.86477e-17 2.10393e-17 -0.0935769 7.51529e-18 9.80462e-18 -0.0819069 1.38219e-17 1.47666e-17 -0.0690668 1.02266e-17 1.24784e-17 -0.0550565 6.88916e-18 9.48118e-18 -0.039876 4.11226e-18 6.32149e-18 -0.0255489 2.29035e-18 3.39186e-18 -0.0140987 9.04212e-19 1.29346e-18 -0.00552523 -2.43648e-20 -4.3817e-20 0.000171343 -1.83125e-19 -4.11636e-19 0.00299107 -1.82989e-19 -3.92285e-19 0.00293396 0 0 0 2.637e-17 2.637e-17 -0.122142 2.43622e-17 2.43622e-17 -0.114035 1.10694e-17 1.10694e-17 -0.104735 9.85377e-18 9.85377e-18 -0.0942399 8.53839e-18 8.53839e-18 -0.0825513 7.12726e-18 7.12726e-18 -0.0696688 5.62444e-18 5.62444e-18 -0.0555923 8.06791e-18 8.06791e-18 -0.0403219 2.56173e-18 2.56173e-18 -0.0258984 2.80892e-18 2.80892e-18 -0.0143627 1.10471e-18 1.10471e-18 -0.00571466 -4.35771e-21 -4.35771e-21 4.56176e-05 0 0 0.00291815 0 0 0.00290295 0 0 0 2.64241e-17 2.64241e-17 -0.121566 1.27548e-17 1.1751e-17 -0.113406 1.8196e-18 -1.46651e-18 -0.104077 3.05446e-17 2.87891e-17 -0.0935769 1.71202e-17 1.70367e-17 -0.0819069 2.14933e-17 2.12621e-17 -0.0690668 6.23922e-18 5.11331e-18 -0.0550565 8.8059e-18 7.4334e-18 -0.039876 3.16074e-18 2.05613e-18 -0.0255489 4.22696e-18 4.12931e-18 -0.0140987 4.85979e-19 5.81664e-19 -0.00552523 -1.47666e-20 -1.79384e-20 0.000171343 7.95457e-20 -6.411e-20 0.00299107 -2.42659e-19 -3.0358e-19 0.00293396 0 0 0 1.99432e-17 1.99432e-17 -0.119837 1.93979e-17 1.77276e-17 -0.111519 2.23165e-17 2.2159e-17 -0.102103 1.58186e-17 1.41504e-17 -0.0915877 7.68003e-18 9.07878e-18 -0.0799736 9.03441e-18 5.86427e-18 -0.0672607 9.29189e-18 7.79814e-18 -0.0534489 6.4509e-18 5.68131e-18 -0.0385383 6.01804e-18 6.43722e-18 -0.0245004 9.83846e-19 4.75598e-19 -0.0133066 1.95976e-19 2.82328e-19 -0.00495696 -2.0997e-20 -3.12038e-20 0.000548518 -6.60491e-19 -6.10639e-19 0.00320984 5.84327e-20 -2.78824e-19 0.003027 0 0 0 1.34425e-17 1.34425e-17 -0.116955 1.63506e-18 -8.1455e-19 -0.108374 1.56584e-17 8.92401e-18 -0.0988134 1.31687e-17 8.25038e-18 -0.0882725 1.43868e-17 1.19801e-17 -0.0767515 0 0 -0.0642506 1.0698e-17 7.11212e-18 -0.0507697 2.89888e-18 1.4951e-18 -0.0363088 4.32537e-18 3.32063e-18 -0.0227528 1.72849e-18 1.04431e-18 -0.0119865 4.10325e-19 1.11343e-19 -0.00400983 -3.9172e-20 -7.2315e-20 0.00117714 -1.13161e-19 -2.19842e-19 0.00357444 -1.91448e-19 -3.91736e-19 0.00318206 0 0 0 1.3667e-17 1.3667e-17 -0.112921 5.82497e-18 6.4027e-18 -0.103972 1.54684e-17 9.68995e-18 -0.0942081 2.1427e-17 1.24524e-17 -0.0836311 1.72278e-17 1.11002e-17 -0.0722406 7.63606e-18 1.15724e-17 -0.0600365 1.86465e-18 3.04094e-18 -0.0470188 8.0345e-18 2.27118e-18 -0.0331876 6.23212e-18 8.82889e-19 -0.0203062 2.17561e-18 7.72523e-19 -0.0101383 6.245e-19 3.89941e-19 -0.00268386 -6.72195e-19 -6.72675e-20 0.00205722 -1.26687e-18 -1.53717e-19 0.00408489 -1.58446e-18 -4.40218e-19 0.00339915 0 0 0 6.99663e-18 6.99663e-18 -0.107735 9.28344e-18 5.63835e-18 -0.0983106 7.56687e-18 5.21437e-18 -0.0882869 1.75872e-17 1.89426e-18 -0.0776637 1.38353e-17 1.88766e-18 -0.0664408 1.54906e-17 4.82451e-18 -0.0546183 0 0 -0.0421962 6.14206e-18 7.76384e-19 -0.0291745 1.42609e-18 -3.47109e-19 -0.0171606 2.04174e-18 1.00937e-19 -0.00776217 3.15198e-19 -1.71163e-21 -0.000979038 -9.70237e-19 -6.82538e-21 0.00318874 -1.27159e-18 3.09504e-19 0.00474118 -1.00556e-18 -3.24843e-20 0.00367826 0 0 0 7.2316e-18 7.2316e-18 -0.101395 9.28824e-18 6.15829e-18 -0.0913918 1.58311e-17 4.51263e-18 -0.08105 1.68458e-17 3.52231e-18 -0.0703701 9.47162e-18 3.53819e-18 -0.0593521 1.21136e-17 2.3046e-18 -0.047996 8.43372e-18 1.8243e-18 -0.0363019 5.21211e-18 1.26649e-18 -0.0242696 4.95319e-18 4.35331e-19 -0.013316 8.44602e-19 8.60894e-20 -0.00485795 -3.49282e-19 -1.81133e-22 0.00110463 -7.38236e-19 -2.64364e-19 0.00457172 -3.74281e-20 -2.09928e-19 0.00554331 0 0 0.0040194 0 0 0 0 0 -0.0939036 1.07249e-17 -0 -0.0832149 1.64904e-17 -0 -0.0724972 8.37896e-18 -0 -0.0617504 6.25845e-18 -0 -0.0509746 1.35098e-17 -0 -0.0401698 3.02576e-18 -0 -0.0293359 3.52853e-18 -0 -0.0184729 3.12023e-18 -0 -0.00877237 4.74396e-19 -0 -0.00142568 -5.57531e-19 0 0.00356716 -2.74376e-18 0 0.00620614 -1.80983e-18 0 0.00649128 -1.75476e-18 0 0.00442257 0 0 0 0.0167776 0.00150623 -0.050226 0.0167848 -0.000536887 -0.0430069 0.0167919 -0.00160277 -0.0358277 0.0167991 -0.00199992 -0.0286883 0.0168062 -0.00191938 -0.0215887 0.0168134 -0.00148578 -0.0145289 0.0168205 -0.000783899 -0.00750896 0.0168277 0.000126607 -0.000528798 0.0116936 -0.000474142 0.00544793 0.00655949 -0.000897147 0.0094576 0.0014254 -0.00113012 0.0115002 -0.0037087 -0.0011636 0.0115757 -0.00884279 -0.000990151 0.00968422 -0.0139769 -0.000603868 0.00582564 -0.019111 0 0 0.0148425 0.00175269 -0.0552531 0.0154665 0.00073992 -0.0485271 0.0160107 0.000327661 -0.0416089 0.016497 0.000336882 -0.0344983 0.0169398 0.000650048 -0.0271955 0.017349 0.00118683 -0.0197004 0.0177317 0.00189049 -0.0120131 0.0180928 0.00271983 -0.00413344 0.0129291 0.00146264 0.00278729 0.00780058 0.000403485 0.00759795 0.00270629 -0.000452714 0.0102985 -0.0023544 -0.00110249 0.010889 -0.00738204 -0.00154351 0.00936942 -0.0123771 -0.00177423 0.00573975 -0.0173398 -0.00179379 2.18333e-20 0.0132571 0.002349 -0.0595069 0.0142604 0.00206363 -0.0531981 0.0151533 0.00214366 -0.0465006 0.0159625 0.00248069 -0.0394145 0.0167061 0.00300063 -0.0319397 0.0173971 0.00365119 -0.0240763 0.0180449 0.00439447 -0.0158242 0.0186564 0.00520239 -0.00718352 0.0135536 0.00336119 0.000535986 0.00851546 0.0017265 0.0060244 0.00354097 0.000298832 0.00928171 -0.00137074 -0.000922079 0.0103079 -0.00622038 -0.00193711 0.00910305 -0.0110085 -0.00274759 0.00566707 -0.0157357 -0.00335521 7.80642e-20 0.0118742 0.00314769 -0.0629872 0.0131066 0.00339447 -0.0570197 0.0142204 0.00385188 -0.0505029 0.0152405 0.00445338 -0.0434368 0.0161845 0.00515228 -0.0358214 0.0170651 0.00591493 -0.0276566 0.017892 0.00671657 -0.0189425 0.0186723 0.00753863 -0.00967904 0.0136984 0.00517453 -0.00130599 0.00881525 0.0030177 0.00473695 0.00402159 0.00106616 0.00844978 -0.000683514 -0.000682495 0.0098325 -0.0053009 -0.00223099 0.00888511 -0.00983132 -0.00358233 0.00560761 -0.0142754 -0.0047397 1.56155e-19 0.0106126 0.00406768 -0.0656941 0.0119698 0.00471051 -0.0599922 0.0132117 0.00545823 -0.0536159 0.014359 0.00627097 -0.0465653 0.0154267 0.00712032 -0.0388404 0.0164259 0.00798557 -0.0304412 0.0173651 0.0088514 -0.0213678 0.0182509 0.00970631 -0.01162 0.0134601 0.00687172 -0.00273864 0.00878318 0.00423993 0.0037356 0.00421884 0.00180774 0.00780272 -0.000234137 -0.000428245 0.00946272 -0.00457687 -0.00247163 0.0087156 -0.00881041 -0.00432614 0.00556136 -0.0129358 -0.00599565 2.45124e-19 0.00942555 0.00506229 -0.0676277 0.0108279 0.00599969 -0.0621153 0.012126 0.00696797 -0.0558394 0.0133352 0.00794532 -0.0487999 0.0144667 0.00891614 -0.0409969 0.0155291 0.00986907 -0.0324303 0.016529 0.0107957 -0.0231001 0.0174717 0.01169 -0.0130064 0.0129093 0.00843086 -0.00376196 0.00848169 0.00536629 0.00302035 0.00418712 0.00249273 0.00734053 2.39436e-05 -0.000193472 0.00919859 -0.00400942 -0.00269606 0.00859452 -0.00791452 -0.00501886 0.00552832 -0.0116929 -0.00716574 3.35272e-19 0.00828628 0.00610465 -0.0687878 0.00966688 0.00725607 -0.0633892 0.0109615 0.00838578 -0.0571735 0.012179 0.00948495 -0.0501407 0.0133261 0.0105474 -0.0422908 0.0144078 0.0115686 -0.0336237 0.0154284 0.0125456 -0.0241395 0.0163913 0.0134762 -0.0138382 0.0120978 0.00983405 -0.00437596 0.00795764 0.00637519 0.0025912 0.0039685 0.0030963 0.00706322 0.000128164 -6.01417e-06 0.00904011 -0.00356556 -0.00293518 0.00852187 -0.00711484 -0.00569466 0.0055085 -0.0105218 -0.00828793 4.17959e-19 0.00718076 0.00718076 -0.0691745 0.00847791 0.00847791 -0.0638138 0.00971578 0.00971578 -0.0576182 0.0108954 0.0108954 -0.0505876 0.0120176 0.0120176 -0.042722 0.0130835 0.0130835 -0.0340215 0.0140939 0.0140939 -0.024486 0.01505 0.01505 -0.0141155 0.0110634 0.0110634 -0.00458062 0.00724639 0.00724639 0.00244815 0.00359597 0.00359597 0.00697078 0.000109345 0.000109345 0.00898728 -0.00321634 -0.00321634 0.00849766 -0.00638395 -0.00638395 0.00550189 -0.00939632 -0.00939632 4.85421e-19 0.00610465 0.00828628 -0.0687878 0.00725607 0.00966688 -0.0633892 0.00838578 0.0109615 -0.0571735 0.00948495 0.012179 -0.0501407 0.0105474 0.0133261 -0.0422908 0.0115686 0.0144078 -0.0336237 0.0125456 0.0154284 -0.0241395 0.0134762 0.0163913 -0.0138382 0.00983405 0.0120978 -0.00437596 0.00637519 0.00795764 0.0025912 0.0030963 0.0039685 0.00706322 -6.01417e-06 0.000128164 0.00904011 -0.00293518 -0.00356556 0.00852187 -0.00569466 -0.00711484 0.0055085 -0.00828793 -0.0105218 5.30615e-19 0.00506229 0.00942555 -0.0676277 0.00599969 0.0108279 -0.0621153 0.00696797 0.012126 -0.0558394 0.00794532 0.0133352 -0.0487999 0.00891614 0.0144667 -0.0409969 0.00986907 0.0155291 -0.0324303 0.0107957 0.016529 -0.0231001 0.01169 0.0174717 -0.0130064 0.00843086 0.0129093 -0.00376196 0.00536629 0.00848169 0.00302035 0.00249273 0.00418712 0.00734053 -0.000193472 2.39436e-05 0.00919859 -0.00269606 -0.00400942 0.00859452 -0.00501886 -0.00791452 0.00552832 -0.00716574 -0.0116929 5.47088e-19 0.00406768 0.0106126 -0.0656941 0.00471051 0.0119698 -0.0599922 0.00545823 0.0132117 -0.0536159 0.00627097 0.014359 -0.0465653 0.00712032 0.0154267 -0.0388404 0.00798557 0.0164259 -0.0304412 0.0088514 0.0173651 -0.0213678 0.00970631 0.0182509 -0.01162 0.00687172 0.0134601 -0.00273864 0.00423993 0.00878318 0.0037356 0.00180774 0.00421884 0.00780272 -0.000428245 -0.000234137 0.00946272 -0.00247163 -0.00457687 0.0087156 -0.00432614 -0.00881041 0.00556136 -0.00599565 -0.0129358 5.28862e-19 0.00314769 0.0118742 -0.0629872 0.00339447 0.0131066 -0.0570197 0.00385188 0.0142204 -0.0505029 0.00445338 0.0152405 -0.0434368 0.00515228 0.0161845 -0.0358214 0.00591493 0.0170651 -0.0276566 0.00671657 0.017892 -0.0189425 0.00753863 0.0186723 -0.00967904 0.00517453 0.0136984 -0.00130599 0.0030177 0.00881525 0.00473695 0.00106616 0.00402159 0.00844978 -0.000682495 -0.000683514 0.0098325 -0.00223099 -0.0053009 0.00888511 -0.00358233 -0.00983132 0.00560761 -0.0047397 -0.0142754 4.70321e-19 0.002349 0.0132571 -0.0595069 0.00206363 0.0142604 -0.0531981 0.00214366 0.0151533 -0.0465006 0.00248069 0.0159625 -0.0394145 0.00300063 0.0167061 -0.0319397 0.00365119 0.0173971 -0.0240763 0.00439447 0.0180449 -0.0158242 0.00520239 0.0186564 -0.00718352 0.00336119 0.0135536 0.000535986 0.0017265 0.00851546 0.0060244 0.000298832 0.00354097 0.00928171 -0.000922079 -0.00137074 0.0103079 -0.00193711 -0.00622038 0.00910305 -0.00274759 -0.0110085 0.00566707 -0.00335521 -0.0157357 3.66115e-19 0.00175269 0.0148425 -0.0552531 0.00073992 0.0154665 -0.0485271 0.000327661 0.0160107 -0.0416089 0.000336882 0.016497 -0.0344983 0.000650048 0.0169398 -0.0271955 0.00118683 0.017349 -0.0197004 0.00189049 0.0177317 -0.0120131 0.00271983 0.0180928 -0.00413344 0.00146264 0.0129291 0.00278729 0.000403485 0.00780058 0.00759795 -0.000452714 0.00270629 0.0102985 -0.00110249 -0.0023544 0.010889 -0.00154351 -0.00738204 0.00936942 -0.00177423 -0.0123771 0.00573975 -0.00179379 -0.0173398 2.11054e-19 0.00150623 0.0167776 -0.050226 -0.000536887 0.0167848 -0.0430069 -0.00160277 0.0167919 -0.0358277 -0.00199992 0.0167991 -0.0286883 -0.00191938 0.0168062 -0.0215887 -0.00148578 0.0168134 -0.0145289 -0.000783899 0.0168205 -0.00750896 0.000126607 0.0168277 -0.000528798 -0.000474142 0.0116936 0.00544793 -0.000897147 0.00655949 0.0094576 -0.00113012 0.0014254 0.0115002 -0.0011636 -0.0037087 0.0115757 -0.000990151 -0.00884279 0.00968422 -0.000603868 -0.0139769 0.00582564 -4.80865e-18 -0.019111 0 0.0280185 0.00267627 -0.00654836 0.0279306 -0.000936777 -0.00279898 0.0278426 -0.00281374 0.000841734 0.0277547 -0.00350115 0.00437378 0.0276668 -0.00333747 0.00779717 0.0275788 -0.0025435 0.0111119 0.0274909 -0.00126943 0.0143179 0.027403 0.000379048 0.0174153 0.0180109 -0.000713642 0.0196682 0.00861889 -0.00149323 0.0203409 -0.000773133 -0.00193506 0.0194332 -0.0101652 -0.00202011 0.0169453 -0.0195572 -0.00173347 0.0128772 -0.0289492 -0.00106328 0.00722872 -0.0383412 -2.41183e-18 0 0.0246757 0.0029538 -0.0091108 0.0256846 0.00114861 -0.00566252 0.0265524 0.00041287 -0.00216778 0.0273183 0.000429101 0.00137341 0.0280076 0.000988874 0.00496106 0.0286381 0.00194973 0.00859516 0.029222 0.00321102 0.0122757 0.0297683 0.00469967 0.0160027 0.0203036 0.00240436 0.0188906 0.0109044 0.000463829 0.0200538 0.00156909 -0.00111129 0.0194924 -0.00770388 -0.00231343 0.0172063 -0.0169156 -0.00313728 0.0131955 -0.0260669 -0.00357926 0.0074601 -0.0351586 -0.00363712 4.1855e-20 0.0219554 0.0038538 -0.011279 0.0236409 0.00332378 -0.00808551 0.0251319 0.00344673 -0.00471429 0.0264756 0.00403023 -0.00116536 0.0277041 0.00494278 0.00256128 0.0288404 0.00609154 0.00646562 0.0299011 0.0074092 0.0105477 0.0308987 0.00884588 0.0148074 0.0215338 0.00547743 0.0182326 0.0122893 0.0024827 0.019811 0.00316321 -0.000136236 0.0195425 -0.00584637 -0.00237898 0.0174271 -0.0147409 -0.0042464 0.0134649 -0.0235216 -0.00574038 0.00765588 -0.0321895 -0.00686353 1.5098e-19 0.0195983 0.00511704 -0.013053 0.0216951 0.00551897 -0.010068 0.0235832 0.00629938 -0.0067978 0.0253066 0.00734008 -0.00324254 0.0268965 0.00855809 0.000597819 0.0283758 0.00989362 0.00472327 0.0297614 0.0113026 0.00913382 0.0310661 0.0127521 0.0138295 0.0219306 0.00842076 0.0176943 0.0129638 0.00446709 0.0196122 0.00416332 0.000888221 0.0195834 -0.00447283 -0.00231966 0.0176078 -0.0129464 -0.00516106 0.0136853 -0.021259 -0.00764109 0.00781607 -0.0294119 -0.00976527 3.04179e-19 0.0174619 0.00660095 -0.0144328 0.0197852 0.00769557 -0.0116099 0.021906 0.00898093 -0.0084183 0.0238611 0.0103862 -0.00485812 0.025677 0.0118607 -0.000929315 0.0273736 0.0133676 0.00336811 0.0289659 0.0148797 0.00803416 0.0304655 0.0163765 0.0130688 0.0216623 0.0111776 0.0172755 0.0130708 0.00635009 0.0194577 0.0046882 0.00188854 0.0196153 -0.00348791 -0.00221292 0.0177483 -0.0114598 -0.00596058 0.0138568 -0.0192295 -0.00936105 0.00794066 -0.0267991 -0.0124212 4.80125e-19 0.0154641 0.00822345 -0.0154184 0.0178727 0.00983232 -0.0127112 0.0200991 0.0115003 -0.00957581 0.0221701 0.0131887 -0.00601211 0.0241059 0.0148695 -0.00202013 0.0259217 0.0165225 0.00240014 0.0276292 0.0181329 0.00724869 0.0292377 0.0196895 0.0125255 0.0208529 0.0137073 0.0169765 0.0127181 0.00808262 0.0193473 0.00482986 0.00280931 0.019638 -0.00281493 -0.00211915 0.0178487 -0.0102194 -0.00670948 0.0139792 -0.0173865 -0.0109686 0.00802965 -0.024319 -0.0149035 6.59272e-19 0.0135576 0.0099373 -0.0160097 0.0159332 0.0119186 -0.013372 0.0181594 0.0138654 -0.0102703 0.0202517 0.0157619 -0.0067045 0.022222 0.0175969 -0.00267461 0.0240795 0.0193626 0.00181936 0.0258314 0.0210534 0.00677741 0.0274837 0.0226654 0.0121995 0.0195934 0.0159762 0.016797 0.011987 0.00962491 0.019281 0.00466019 0.00360551 0.0196517 -0.00239129 -0.00208818 0.0179089 -0.00917155 -0.00746238 0.0140527 -0.0156847 -0.0125234 0.00808304 -0.0219347 -0.0172777 8.23787e-19 0.0117179 0.0117179 -0.0162068 0.0139514 0.0139514 -0.0135923 0.0160832 0.0160832 -0.0105018 0.018115 0.018115 -0.0069353 0.0200485 0.0200485 -0.00289277 0.0218854 0.0218854 0.00162576 0.0236273 0.0236273 0.00662031 0.0252758 0.0252758 0.0120909 0.0179512 0.0179512 0.0167372 0.0109398 0.0109398 0.019259 0.00423635 0.00423635 0.0196562 -0.00216443 -0.00216443 0.017929 -0.00826782 -0.00826782 0.0140772 -0.0140791 -0.0140791 0.00810084 -0.0196036 -0.0196036 9.57496e-19 0.0099373 0.0135576 -0.0160097 0.0119186 0.0159332 -0.013372 0.0138654 0.0181594 -0.0102703 0.0157619 0.0202517 -0.0067045 0.0175969 0.022222 -0.00267461 0.0193626 0.0240795 0.00181936 0.0210534 0.0258314 0.00677741 0.0226654 0.0274837 0.0121995 0.0159762 0.0195934 0.016797 0.00962491 0.011987 0.019281 0.00360551 0.00466019 0.0196517 -0.00208818 -0.00239129 0.0179089 -0.00746238 -0.00917155 0.0140527 -0.0125234 -0.0156847 0.00808304 -0.0172777 -0.0219347 1.04583e-18 0.00822345 0.0154641 -0.0154184 0.00983232 0.0178727 -0.0127112 0.0115003 0.0200991 -0.00957581 0.0131887 0.0221701 -0.00601211 0.0148695 0.0241059 -0.00202013 0.0165225 0.0259217 0.00240014 0.0181329 0.0276292 0.00724869 0.0196895 0.0292377 0.0125255 0.0137073 0.0208529 0.0169765 0.00808262 0.0127181 0.0193473 0.00280931 0.00482986 0.019638 -0.00211915 -0.00281493 0.0178487 -0.00670948 -0.0102194 0.0139792 -0.0109686 -0.0173865 0.00802965 -0.0149035 -0.024319 1.07578e-18 0.00660095 0.0174619 -0.0144328 0.00769557 0.0197852 -0.0116099 0.00898093 0.021906 -0.0084183 0.0103862 0.0238611 -0.00485812 0.0118607 0.025677 -0.000929315 0.0133676 0.0273736 0.00336811 0.0148797 0.0289659 0.00803416 0.0163765 0.0304655 0.0130688 0.0111776 0.0216623 0.0172755 0.00635009 0.0130708 0.0194577 0.00188854 0.0046882 0.0196153 -0.00221292 -0.00348791 0.0177483 -0.00596058 -0.0114598 0.0138568 -0.00936105 -0.0192295 0.00794066 -0.0124212 -0.0267991 1.03588e-18 0.00511704 0.0195983 -0.013053 0.00551897 0.0216951 -0.010068 0.00629938 0.0235832 -0.0067978 0.00734008 0.0253066 -0.00324254 0.00855809 0.0268965 0.000597819 0.00989362 0.0283758 0.00472327 0.0113026 0.0297614 0.00913382 0.0127521 0.0310661 0.0138295 0.00842076 0.0219306 0.0176943 0.00446709 0.0129638 0.0196122 0.000888221 0.00416332 0.0195834 -0.00231966 -0.00447283 0.0176078 -0.00516106 -0.0129464 0.0136853 -0.00764109 -0.021259 0.00781607 -0.00976527 -0.0294119 9.16155e-19 0.0038538 0.0219554 -0.011279 0.00332378 0.0236409 -0.00808551 0.00344673 0.0251319 -0.00471429 0.00403023 0.0264756 -0.00116536 0.00494278 0.0277041 0.00256128 0.00609154 0.0288404 0.00646562 0.0074092 0.0299011 0.0105477 0.00884588 0.0308987 0.0148074 0.00547743 0.0215338 0.0182326 0.0024827 0.0122893 0.019811 -0.000136236 0.00316321 0.0195425 -0.00237898 -0.00584637 0.0174271 -0.0042464 -0.0147409 0.0134649 -0.00574038 -0.0235216 0.00765588 -0.00686353 -0.0321895 7.08086e-19 0.0029538 0.0246757 -0.0091108 0.00114861 0.0256846 -0.00566252 0.00041287 0.0265524 -0.00216778 0.000429101 0.0273183 0.00137341 0.000988874 0.0280076 0.00496106 0.00194973 0.0286381 0.00859516 0.00321102 0.029222 0.0122757 0.00469967 0.0297683 0.0160027 0.00240436 0.0203036 0.0188906 0.000463829 0.0109044 0.0200538 -0.00111129 0.00156909 0.0194924 -0.00231343 -0.00770388 0.0172063 -0.00313728 -0.0169156 0.0131955 -0.00357926 -0.0260669 0.0074601 -0.00363712 -0.0351586 4.04595e-19 0.00267627 0.0280185 -0.00654836 -0.000936777 0.0279306 -0.00279898 -0.00281374 0.0278426 0.000841734 -0.00350115 0.0277547 0.00437378 -0.00333747 0.0276668 0.00779717 -0.0025435 0.0275788 0.0111119 -0.00126943 0.0274909 0.0143179 0.000379048 0.027403 0.0174153 -0.000713642 0.0180109 0.0196682 -0.00149323 0.00861889 0.0203409 -0.00193506 -0.000773133 0.0194332 -0.00202011 -0.0101652 0.0169453 -0.00173347 -0.0195572 0.0128772 -0.00106328 -0.0289492 0.00722872 -9.64732e-18 -0.0383412 0 0.0337226 0.00351011 0.0371293 0.0334373 -0.00119967 0.037409 0.0331521 -0.0036329 0.0375112 0.0328668 -0.00450368 0.0374359 0.0325816 -0.00425427 0.0371831 0.0322963 -0.00317316 0.0367527 0.0320111 -0.00145659 0.0361448 0.0317258 0.000757324 0.0353594 0.018952 -0.000718498 0.0338885 0.00617821 -0.00178825 0.0312242 -0.00659559 -0.00241481 0.0273663 -0.0193694 -0.00256953 0.0223149 -0.0321432 -0.00222996 0.0160701 -0.044917 -0.00137824 0.0086318 -0.0576908 3.629e-18 0 0.0294997 0.00360332 0.0370315 0.0306542 0.00122608 0.0372021 0.0316253 0.000255627 0.0372733 0.0324639 0.000276656 0.0372452 0.0332035 0.00101648 0.0371176 0.0338671 0.00228869 0.0368907 0.0344707 0.00396159 0.0365645 0.0350263 0.00593951 0.0361389 0.0221233 0.00282515 0.0349939 0.00931159 0.000181035 0.0325097 -0.00341161 -0.00197574 0.0286863 -0.0160484 -0.00363281 0.0235236 -0.0286006 -0.00478132 0.0170216 -0.0410695 -0.0054151 0.00918045 -0.0534563 -0.00553 5.99663e-20 0.0260947 0.00451442 0.0369488 0.0281417 0.00378048 0.0370271 0.0299359 0.00390921 0.037072 0.0315393 0.00464862 0.0370838 0.0329939 0.00582645 0.0370623 0.0343297 0.00732104 0.0370076 0.0355687 0.0090442 0.0369196 0.0367269 0.0109305 0.0367984 0.0239405 0.00634872 0.0359292 0.0113216 0.0022686 0.0335975 -0.00113328 -0.0013052 0.0298032 -0.0134269 -0.00437069 0.0245463 -0.0255615 -0.00692788 0.0178268 -0.0375391 -0.00897836 0.00964469 -0.0493613 -0.010525 2.18165e-19 0.0231723 0.00590805 0.0368812 0.0257655 0.00637351 0.0368838 0.0280881 0.0073425 0.0369074 0.0301981 0.00866008 0.0369518 0.0321362 0.0102174 0.037017 0.0339322 0.0119361 0.0371031 0.0356083 0.0137582 0.0372101 0.0371813 0.0156403 0.037338 0.0246964 0.00973869 0.0366945 0.0124456 0.00434819 0.0344875 0.000425204 -0.000533814 0.030717 -0.0113679 -0.00491149 0.0253831 -0.0229366 -0.00879021 0.0184855 -0.034283 -0.0121763 0.0100245 -0.0454094 -0.0150767 4.42533e-19 0.020548 0.00759981 0.0368285 0.0234462 0.0089552 0.0367724 0.0260829 0.0105681 0.0367793 0.0285062 0.0123455 0.0368491 0.030751 0.014221 0.0369818 0.0328431 0.0161462 0.0371775 0.0348023 0.018085 0.0374361 0.0366438 0.0200105 0.0377577 0.0246066 0.0129177 0.0372897 0.0128628 0.00633051 0.0351798 0.00140807 0.000242399 0.0314278 -0.00976131 -0.00535402 0.0260339 -0.0206487 -0.0104668 0.0189979 -0.0312573 -0.0151047 0.01032 -0.0415899 -0.0192767 7.02126e-19 0.0181156 0.00948347 0.036791 0.0211345 0.0114979 0.0366929 0.023919 0.0135971 0.0366878 0.0265047 0.01573 0.0367757 0.0289177 0.01786 0.0369566 0.0311779 0.0199604 0.0372306 0.0333007 0.0220115 0.0375975 0.0352981 0.0239985 0.0380574 0.0238307 0.0158292 0.0377149 0.0127091 0.00814899 0.0356742 0.00192821 0.000949744 0.0319355 -0.00851663 -0.00577704 0.0264987 -0.0186299 -0.0120403 0.0193639 -0.0284158 -0.0178492 0.010531 -0.0378786 -0.0232131 9.67618e-19 0.015814 0.011498 0.0367684 0.018799 0.0139877 0.0366451 0.0215936 0.016439 0.0366329 0.0242181 0.0188309 0.0367317 0.0266879 0.0211487 0.0369415 0.029015 0.0233821 0.0372624 0.0312089 0.0255234 0.0376943 0.0332774 0.0275676 0.0382373 0.0224869 0.0184265 0.03797 0.0120882 0.00974916 0.0359709 0.00207508 0.00152761 0.0322401 -0.00755837 -0.00624648 0.0267776 -0.016818 -0.0135816 0.0195835 -0.0257095 -0.0204863 0.0106576 -0.0342386 -0.0269694 1.21169e-18 0.0136114 0.0136114 0.0367609 0.0164203 0.0164203 0.0366292 0.0191021 0.0191021 0.0366146 0.0216589 0.0216589 0.036717 0.0240928 0.0240928 0.0369365 0.0264058 0.0264058 0.037273 0.0286 0.0286 0.0377266 0.0306775 0.0306775 0.0382973 0.0206633 0.0206633 0.038055 0.0110802 0.0110802 0.0360698 0.00192115 0.00192115 0.0323417 -0.00682132 -0.00682132 0.0268706 -0.0151544 -0.0151544 0.0196567 -0.0230855 -0.0230855 0.0106998 -0.0306218 -0.0306218 1.40937e-18 0.011498 0.015814 0.0367684 0.0139877 0.018799 0.0366451 0.016439 0.0215936 0.0366329 0.0188309 0.0242181 0.0367317 0.0211487 0.0266879 0.0369415 0.0233821 0.029015 0.0372624 0.0255234 0.0312089 0.0376943 0.0275676 0.0332774 0.0382373 0.0184265 0.0224869 0.03797 0.00974916 0.0120882 0.0359709 0.00152761 0.00207508 0.0322401 -0.00624648 -0.00755837 0.0267776 -0.0135816 -0.016818 0.0195835 -0.0204863 -0.0257095 0.0106576 -0.0269694 -0.0342386 1.53829e-18 0.00948347 0.0181156 0.036791 0.0114979 0.0211345 0.0366929 0.0135971 0.023919 0.0366878 0.01573 0.0265047 0.0367757 0.01786 0.0289177 0.0369566 0.0199604 0.0311779 0.0372306 0.0220115 0.0333007 0.0375975 0.0239985 0.0352981 0.0380574 0.0158292 0.0238307 0.0377149 0.00814899 0.0127091 0.0356742 0.000949744 0.00192821 0.0319355 -0.00577704 -0.00851663 0.0264987 -0.0120403 -0.0186299 0.0193639 -0.0178492 -0.0284158 0.010531 -0.0232131 -0.0378786 1.57893e-18 0.00759981 0.020548 0.0368285 0.0089552 0.0234462 0.0367724 0.0105681 0.0260829 0.0367793 0.0123455 0.0285062 0.0368491 0.014221 0.030751 0.0369818 0.0161462 0.0328431 0.0371775 0.018085 0.0348023 0.0374361 0.0200105 0.0366438 0.0377577 0.0129177 0.0246066 0.0372897 0.00633051 0.0128628 0.0351798 0.000242399 0.00140807 0.0314278 -0.00535402 -0.00976131 0.0260339 -0.0104668 -0.0206487 0.0189979 -0.0151047 -0.0312573 0.01032 -0.0192767 -0.0415899 1.51486e-18 0.00590805 0.0231723 0.0368812 0.00637351 0.0257655 0.0368838 0.0073425 0.0280881 0.0369074 0.00866008 0.0301981 0.0369518 0.0102174 0.0321362 0.037017 0.0119361 0.0339322 0.0371031 0.0137582 0.0356083 0.0372101 0.0156403 0.0371813 0.037338 0.00973869 0.0246964 0.0366945 0.00434819 0.0124456 0.0344875 -0.000533814 0.000425204 0.030717 -0.00491149 -0.0113679 0.0253831 -0.00879021 -0.0229366 0.0184855 -0.0121763 -0.034283 0.0100245 -0.0150767 -0.0454094 1.33286e-18 0.00451442 0.0260947 0.0369488 0.00378048 0.0281417 0.0370271 0.00390921 0.0299359 0.037072 0.00464862 0.0315393 0.0370838 0.00582645 0.0329939 0.0370623 0.00732104 0.0343297 0.0370076 0.0090442 0.0355687 0.0369196 0.0109305 0.0367269 0.0367984 0.00634872 0.0239405 0.0359292 0.0022686 0.0113216 0.0335975 -0.0013052 -0.00113328 0.0298032 -0.00437069 -0.0134269 0.0245463 -0.00692788 -0.0255615 0.0178268 -0.00897836 -0.0375391 0.00964469 -0.010525 -0.0493613 1.02318e-18 0.00360332 0.0294997 0.0370315 0.00122608 0.0306542 0.0372021 0.000255627 0.0316253 0.0372733 0.000276656 0.0324639 0.0372452 0.00101648 0.0332035 0.0371176 0.00228869 0.0338671 0.0368907 0.00396159 0.0344707 0.0365645 0.00593951 0.0350263 0.0361389 0.00282515 0.0221233 0.0349939 0.000181035 0.00931159 0.0325097 -0.00197574 -0.00341161 0.0286863 -0.00363281 -0.0160484 0.0235236 -0.00478132 -0.0286006 0.0170216 -0.0054151 -0.0410695 0.00918045 -0.00553 -0.0534563 5.7967e-19 0.00351011 0.0337226 0.0371293 -0.00119967 0.0334373 0.037409 -0.0036329 0.0331521 0.0375112 -0.00450368 0.0328668 0.0374359 -0.00425427 0.0325816 0.0371831 -0.00317316 0.0322963 0.0367527 -0.00145659 0.0320111 0.0361448 0.000757324 0.0317258 0.0353594 -0.000718498 0.018952 0.0338885 -0.00178825 0.00617821 0.0312242 -0.00241481 -0.00659559 0.0273663 -0.00256953 -0.0193694 0.0223149 -0.00222996 -0.0321432 0.0160701 -0.00137824 -0.044917 0.0086318 -7.258e-18 -0.0576908 0 0.0338898 0.00400777 0.0808069 0.033305 -0.00132557 0.077617 0.0327202 -0.00406025 0.0741807 0.0321355 -0.00500752 0.070498 0.0315507 -0.00466978 0.0665689 0.0309659 -0.00337476 0.0623935 0.0303811 -0.00134538 0.0579717 0.0297963 0.00126143 0.0533035 0.0145169 -0.000488711 0.0481088 -0.000762559 -0.00178221 0.0421074 -0.016042 -0.00256938 0.0352993 -0.0313214 -0.00281186 0.0276845 -0.0466008 -0.00247961 0.0192631 -0.0618802 -0.00154873 0.0100349 -0.0771597 9.70735e-18 0 0.0293145 0.00370125 0.0831739 0.0303754 0.000972315 0.0800667 0.0312292 -0.00014407 0.0767144 0.0319339 -0.000120451 0.0731169 0.0325275 0.000732861 0.0692742 0.0330361 0.00220372 0.0651863 0.0334781 0.00414219 0.0608533 0.0338669 0.00643936 0.056275 0.0183883 0.00272501 0.0510972 0.00302202 -0.0004449 0.0449656 -0.0122358 -0.00304605 0.0378802 -0.0273881 -0.00506063 0.0298409 -0.0424371 -0.00647563 0.0208478 -0.0573849 -0.00728174 0.0109008 -0.0722329 -0.00747242 7.60686e-20 0.0256752 0.00433086 0.0851767 0.0277626 0.00343371 0.0821396 0.0295653 0.00353109 0.0788584 0.0311536 0.00433586 0.0753329 0.0325755 0.00565163 0.0715633 0.0338653 0.00733971 0.06754