<?xml version="1.0"?> 
<VTKFile type="StructuredGrid" version="0.1"> 
<StructuredGrid WholeExtent="0 29 0 29 0 29"> 
<Piece Extent="0 29 0 29 0 29"> 
<PointData>
<DataArray type="Float32" Name="efield" format="ascii" NumberOfComponents="3"> 
2.67786e-13 6.70798 7.11298 -0.166152 6.41151 7.10482 -0.336958 6.1197 7.09723 -0.512418 5.83254 7.09023 -0.692532 5.55003 7.08382 -0.8773 5.27218 7.07798 -1.06672 4.99898 7.07273 -1.2608 4.73044 7.06807 -1.45953 4.46655 7.06399 -1.66291 4.20732 7.06049 -1.87095 3.95274 7.05757 -2.08365 3.70281 7.05524 -2.30099 3.45754 7.05349 -2.52299 3.21692 7.05232 -2.74965 2.98096 7.05174 -2.98096 2.74965 7.05174 -3.21692 2.52299 7.05232 -3.45754 2.30099 7.05349 -3.70281 2.08365 7.05524 -3.95274 1.87095 7.05757 -4.20732 1.66291 7.06049 -4.46655 1.45953 7.06399 -4.73044 1.2608 7.06807 -4.99898 1.06672 7.07273 -5.27218 0.8773 7.07798 -5.55003 0.692532 7.08382 -5.83254 0.512418 7.09023 -6.1197 0.336958 7.09723 -6.41151 0.166152 7.10482 -6.70798 3.17524e-13 7.11298 0.166152 6.41151 7.10482 2.36789e-13 6.12403 7.12439 -0.170485 5.84088 7.14256 -0.345303 5.56207 7.15934 -0.524454 5.28759 7.17472 -0.707939 5.01744 7.1887 -0.895756 4.75163 7.20128 -1.08791 4.49014 7.21247 -1.28439 4.233 7.22225 -1.48521 3.98018 7.23064 -1.69036 3.7317 7.23763 -1.89984 3.48755 7.24322 -2.11366 3.24774 7.24742 -2.33181 3.01225 7.25021 -2.55429 2.78111 7.25161 -2.78111 2.55429 7.25161 -3.01225 2.33181 7.25021 -3.24774 2.11366 7.24742 -3.48755 1.89984 7.24322 -3.7317 1.69036 7.23763 -3.98018 1.48521 7.23064 -4.233 1.28439 7.22225 -4.49014 1.08791 7.21247 -4.75163 0.895756 7.20128 -5.01744 0.707939 7.1887 -5.28759 0.524454 7.17472 -5.56207 0.345303 7.15934 -5.84088 0.170485 7.14256 -6.12403 2.66578e-13 7.12439 -6.41151 -0.166152 7.10482 0.336958 6.1197 7.09723 0.170485 5.84088 7.14256 2.07564e-13 5.56608 7.18466 -0.174497 5.29529 7.22351 -0.353006 5.02851 7.25913 -0.535528 4.76575 7.29151 -0.722062 4.507 7.32065 -0.912607 4.25226 7.34655 -1.10717 4.00153 7.36922 -1.30574 3.75481 7.38864 -1.50832 3.51211 7.40483 -1.71491 3.27341 7.41778 -1.92552 3.03874 7.4275 -2.14014 2.80807 7.43397 -2.35877 2.58141 7.43721 -2.58141 2.35877 7.43721 -2.80807 2.14014 7.43397 -3.03874 1.92552 7.4275 -3.27341 1.71491 7.41778 -3.51211 1.50832 7.40483 -3.75481 1.30574 7.38864 -4.00153 1.10717 7.36922 -4.25226 0.912607 7.34655 -4.507 0.722062 7.32065 -4.76575 0.535528 7.29151 -5.02851 0.353006 7.25913 -5.29529 0.174497 7.22351 -5.56608 2.19894e-13 7.18466 -5.84088 -0.170485 7.14256 -6.1197 -0.336958 7.09723 0.512418 5.83254 7.09023 0.345303 5.56207 7.15934 0.174497 5.29529 7.22351 1.80253e-13 5.0322 7.28274 -0.178188 4.77281 7.33704 -0.360068 4.51711 7.3864 -0.545639 4.26509 7.43083 -0.734901 4.01677 7.47032 -0.927854 3.77214 7.50487 -1.1245 3.5312 7.53449 -1.32483 3.29396 7.55917 -1.52886 3.0604 7.57892 -1.73658 2.83054 7.59372 -1.94799 2.60436 7.6036 -2.16309 2.38188 7.60853 -2.38188 2.16309 7.60853 -2.60436 1.94799 7.6036 -2.83054 1.73658 7.59372 -3.0604 1.52886 7.57892 -3.29396 1.32483 7.55917 -3.5312 1.1245 7.53449 -3.77214 0.927854 7.50487 -4.01677 0.734901 7.47032 -4.26509 0.545639 7.43083 -4.51711 0.360068 7.3864 -4.77281 0.178188 7.33704 -5.0322 1.7738e-13 7.28274 -5.29529 -0.174497 7.22351 -5.56207 -0.345303 7.15934 -5.83254 -0.512418 7.09023 0.692532 5.55003 7.08382 0.524454 5.28759 7.17472 0.353006 5.02851 7.25913 0.178188 4.77281 7.33704 1.5306e-13 4.52048 7.40847 -0.181559 4.27151 7.47339 -0.366487 4.02592 7.53183 -0.554786 3.7837 7.58378 -0.746456 3.54485 7.62923 -0.941495 3.30936 7.66818 -1.1399 3.07725 7.70065 -1.34168 2.84851 7.72662 -1.54683 2.62314 7.7461 -1.75536 2.40114 7.75908 -1.96725 2.18251 7.76558 -2.18251 1.96725 7.76558 -2.40114 1.75536 7.75908 -2.62314 1.54683 7.7461 -2.84851 1.34168 7.72662 -3.07725 1.1399 7.70065 -3.30936 0.941495 7.66818 -3.54485 0.746456 7.62923 -3.7837 0.554786 7.58378 -4.02592 0.366487 7.53183 -4.27151 0.181559 7.47339 -4.52048 1.39836e-13 7.40847 -4.77281 -0.178188 7.33704 -5.02851 -0.353006 7.25913 -5.28759 -0.524454 7.17472 -5.55003 -0.692532 7.08382 0.8773 5.27218 7.07798 0.707939 5.01744 7.1887 0.535528 4.76575 7.29151 0.360068 4.51711 7.3864 0.181559 4.27151 7.47339 1.29645e-13 4.02897 7.55248 -0.184608 3.78948 7.62365 -0.372265 3.55303 7.68692 -0.562971 3.31964 7.74227 -0.756727 3.08929 7.78972 -0.953532 2.86199 7.82926 -1.15339 2.63774 7.8609 -1.35629 2.41654 7.88462 -1.56224 2.19839 7.90044 -1.77124 1.98329 7.90835 -1.98329 1.77124 7.90835 -2.19839 1.56224 7.90044 -2.41654 1.35629 7.88462 -2.63774 1.15339 7.8609 -2.86199 0.953532 7.82926 -3.08929 0.756727 7.78972 -3.31964 0.562971 7.74227 -3.55303 0.372265 7.68692 -3.78948 0.184608 7.62365 -4.02897 1.0595e-13 7.55248 -4.27151 -0.181559 7.47339 -4.51711 -0.360068 7.3864 -4.76575 -0.535528 7.29151 -5.01744 -0.707939 7.1887 -5.27218 -0.8773 7.07798 1.06672 4.99898 7.07273 0.895756 4.75163 7.20128 0.722062 4.507 7.32065 0.545639 4.26509 7.43083 0.366487 4.02592 7.53183 0.184608 3.78948 7.62365 1.06384e-13 3.55576 7.70629 -0.187336 3.32477 7.77974 -0.3774 3.09651 7.84402 -0.570193 2.87098 7.89911 -0.765714 2.64817 7.94502 -0.963963 2.4281 7.98175 -1.16494 2.21075 8.00929 -1.36865 1.99613 8.02766 -1.57508 1.78424 8.03684 -1.78424 1.57508 8.03684 -1.99613 1.36865 8.02766 -2.21075 1.16494 8.00929 -2.4281 0.963963 7.98175 -2.64817 0.765714 7.94502 -2.87098 0.570193 7.89911 -3.09651 0.3774 7.84402 -3.32477 0.187336 7.77974 -3.55576 7.71861e-14 7.70629 -3.78948 -0.184608 7.62365 -4.02592 -0.366487 7.53183 -4.26509 -0.545639 7.43083 -4.507 -0.722062 7.32065 -4.75163 -0.895756 7.20128 -4.99898 -1.06672 7.07273 1.2608 4.73044 7.06807 1.08791 4.49014 7.21247 0.912607 4.25226 7.34655 0.734901 4.01677 7.47032 0.554786 3.7837 7.58378 0.372265 3.55303 7.68692 0.187336 3.32477 7.77974 8.50738e-14 3.09892 7.86226 -0.189743 2.87547 7.93446 -0.381894 2.65443 7.99634 -0.576452 2.4358 8.04791 -0.773417 2.21958 8.08917 -0.97279 2.00576 8.12011 -1.17457 1.79435 8.14074 -1.37876 1.58535 8.15105 -1.58535 1.37876 8.15105 -1.79435 1.17457 8.14074 -2.00576 0.97279 8.12011 -2.21958 0.773417 8.08917 -2.4358 0.576452 8.04791 -2.65443 0.381894 7.99634 -2.87547 0.189743 7.93446 -3.09892 5.0734e-14 7.86226 -3.32477 -0.187336 7.77974 -3.55303 -0.372265 7.68692 -3.7837 -0.554786 7.58378 -4.01677 -0.734901 7.47032 -4.25226 -0.912607 7.34655 -4.49014 -1.08791 7.21247 -4.73044 -1.2608 7.06807 1.45953 4.46655 7.06399 1.28439 4.233 7.22225 1.10717 4.00153 7.36922 0.927854 3.77214 7.50487 0.746456 3.54485 7.62923 0.562971 3.31964 7.74227 0.3774 3.09651 7.84402 0.189743 2.87547 7.93446 6.54705e-14 2.65652 8.01359 -0.19183 2.43965 8.08142 -0.385746 2.22488 8.13794 -0.581748 2.01218 8.18316 -0.779837 1.80158 8.21708 -0.980012 1.59305 8.23969 -1.18227 1.38662 8.25099 -1.38662 1.18227 8.25099 -1.59305 0.980012 8.23969 -1.80158 0.779837 8.21708 -2.01218 0.581748 8.18316 -2.22488 0.385746 8.13794 -2.43965 0.19183 8.08142 -2.65652 3.0112e-14 8.01359 -2.87547 -0.189743 7.93446 -3.09651 -0.3774 7.84402 -3.31964 -0.562971 7.74227 -3.54485 -0.746456 7.62923 -3.77214 -0.927854 7.50487 -4.00153 -1.10717 7.36922 -4.233 -1.28439 7.22225 -4.46655 -1.45953 7.06399 1.66291 4.20732 7.06049 1.48521 3.98018 7.23064 1.30574 3.75481 7.38864 1.1245 3.5312 7.53449 0.941495 3.30936 7.66818 0.756727 3.08929 7.78972 0.570193 2.87098 7.89911 0.381894 2.65443 7.99634 0.19183 2.43965 8.08142 4.76216e-14 2.22664 8.15434 -0.193595 2.01539 8.21511 -0.388956 1.80591 8.26373 -0.586081 1.59819 8.30019 -0.784972 1.39224 8.3245 -0.985629 1.18805 8.33665 -1.18805 0.985629 8.33665 -1.39224 0.784972 8.3245 -1.59819 0.586081 8.30019 -1.80591 0.388956 8.26373 -2.01539 0.193595 8.21511 -2.22664 1.31206e-14 8.15434 -2.43965 -0.19183 8.08142 -2.65443 -0.381894 7.99634 -2.87098 -0.570193 7.89911 -3.08929 -0.756727 7.78972 -3.30936 -0.941495 7.66818 -3.5312 -1.1245 7.53449 -3.75481 -1.30574 7.38864 -3.98018 -1.48521 7.23064 -4.20732 -1.66291 7.06049 1.87095 3.95274 7.05757 1.69036 3.7317 7.23763 1.50832 3.51211 7.40483 1.32483 3.29396 7.55917 1.1399 3.07725 7.70065 0.953532 2.86199 7.82926 0.765714 2.64817 7.94502 0.576452 2.4358 8.04791 0.385746 2.22488 8.13794 0.193595 2.01539 8.21511 3.15746e-14 1.80735 8.27942 -0.195039 1.60076 8.33087 -0.391523 1.39561 8.36945 -0.589452 1.1919 8.39517 -0.788824 0.989641 8.40804 -0.989641 0.788824 8.40804 -1.1919 0.589452 8.39517 -1.39561 0.391523 8.36945 -1.60076 0.195039 8.33087 -1.80735 9.74202e-16 8.27942 -2.01539 -0.193595 8.21511 -2.22488 -0.385746 8.13794 -2.4358 -0.576452 8.04791 -2.64817 -0.765714 7.94502 -2.86199 -0.953532 7.82926 -3.07725 -1.1399 7.70065 -3.29396 -1.32483 7.55917 -3.51211 -1.50832 7.40483 -3.7317 -1.69036 7.23763 -3.95274 -1.87095 7.05757 2.08365 3.70281 7.05524 1.89984 3.48755 7.24322 1.71491 3.27341 7.41778 1.52886 3.0604 7.57892 1.34168 2.84851 7.72662 1.15339 2.63774 7.8609 0.963963 2.4281 7.98175 0.773417 2.21958 8.08917 0.581748 2.01218 8.18316 0.388956 1.80591 8.26373 0.195039 1.60076 8.33087 1.6933e-14 1.39673 8.38458 -0.196163 1.19383 8.42486 -0.393449 0.992048 8.45172 -0.591859 0.791392 8.46514 -0.791392 0.591859 8.46514 -0.992048 0.393449 8.45172 -1.19383 0.196163 8.42486 -1.39673 -7.56219e-15 8.38458 -1.60076 -0.195039 8.33087 -1.80591 -0.388956 8.26373 -2.01218 -0.581748 8.18316 -2.21958 -0.773417 8.08917 -2.4281 -0.963963 7.98175 -2.63774 -1.15339 7.8609 -2.84851 -1.34168 7.72662 -3.0604 -1.52886 7.57892 -3.27341 -1.71491 7.41778 -3.48755 -1.89984 7.24322 -3.70281 -2.08365 7.05524 2.30099 3.45754 7.05349 2.11366 3.24774 7.24742 1.92552 3.03874 7.4275 1.73658 2.83054 7.59372 1.54683 2.62314 7.7461 1.35629 2.41654 7.88462 1.16494 2.21075 8.00929 0.97279 2.00576 8.12011 0.779837 1.80158 8.21708 0.586081 1.59819 8.30019 0.391523 1.39561 8.36945 0.196163 1.19383 8.42486 3.93862e-15 0.992851 8.46642 -0.196965 0.792676 8.49412 -0.394733 0.593303 8.50797 -0.593303 0.394733 8.50797 -0.792676 0.196965 8.49412 -0.992851 -1.1295e-14 8.46642 -1.19383 -0.196163 8.42486 -1.39561 -0.391523 8.36945 -1.59819 -0.586081 8.30019 -1.80158 -0.779837 8.21708 -2.00576 -0.97279 8.12011 -2.21075 -1.16494 8.00929 -2.41654 -1.35629 7.88462 -2.62314 -1.54683 7.7461 -2.83054 -1.73658 7.59372 -3.03874 -1.92552 7.4275 -3.24774 -2.11366 7.24742 -3.45754 -2.30099 7.05349 2.52299 3.21692 7.05232 2.33181 3.01225 7.25021 2.14014 2.80807 7.43397 1.94799 2.60436 7.6036 1.75536 2.40114 7.75908 1.56224 2.19839 7.90044 1.36865 1.99613 8.02766 1.17457 1.79435 8.14074 0.980012 1.59305 8.23969 0.784972 1.39224 8.3245 0.589452 1.1919 8.39517 0.393449 0.992048 8.45172 0.196965 0.792676 8.49412 -7.23615e-15 0.593785 8.52239 -0.197447 0.395375 8.53653 -0.395375 0.197447 8.53653 -0.593785 -1.15923e-14 8.52239 -0.792676 -0.196965 8.49412 -0.992048 -0.393449 8.45172 -1.1919 -0.589452 8.39517 -1.39224 -0.784972 8.3245 -1.59305 -0.980012 8.23969 -1.79435 -1.17457 8.14074 -1.99613 -1.36865 8.02766 -2.19839 -1.56224 7.90044 -2.40114 -1.75536 7.75908 -2.60436 -1.94799 7.6036 -2.80807 -2.14014 7.43397 -3.01225 -2.33181 7.25021 -3.21692 -2.52299 7.05232 2.74965 2.98096 7.05174 2.55429 2.78111 7.25161 2.35877 2.58141 7.43721 2.16309 2.38188 7.60853 1.96725 2.18251 7.76558 1.77124 1.98329 7.90835 1.57508 1.78424 8.03684 1.37876 1.58535 8.15105 1.18227 1.38662 8.25099 0.985629 1.18805 8.33665 0.788824 0.989641 8.40804 0.591859 0.791392 8.46514 0.394733 0.593303 8.50797 0.197447 0.395375 8.53653 -1.68282e-14 0.197607 8.5508 -0.197607 -7.63197e-15 8.5508 -0.395375 -0.197447 8.53653 -0.593303 -0.394733 8.50797 -0.791392 -0.591859 8.46514 -0.989641 -0.788824 8.40804 -1.18805 -0.985629 8.33665 -1.38662 -1.18227 8.25099 -1.58535 -1.37876 8.15105 -1.78424 -1.57508 8.03684 -1.98329 -1.77124 7.90835 -2.18251 -1.96725 7.76558 -2.38188 -2.16309 7.60853 -2.58141 -2.35877 7.43721 -2.78111 -2.55429 7.25161 -2.98096 -2.74965 7.05174 2.98096 2.74965 7.05174 2.78111 2.55429 7.25161 2.58141 2.35877 7.43721 2.38188 2.16309 7.60853 2.18251 1.96725 7.76558 1.98329 1.77124 7.90835 1.78424 1.57508 8.03684 1.58535 1.37876 8.15105 1.38662 1.18227 8.25099 1.18805 0.985629 8.33665 0.989641 0.788824 8.40804 0.791392 0.591859 8.46514 0.593303 0.394733 8.50797 0.395375 0.197447 8.53653 0.197607 -2.24126e-15 8.5508 -2.21429e-14 -0.197607 8.5508 -0.197447 -0.395375 8.53653 -0.394733 -0.593303 8.50797 -0.591859 -0.791392 8.46514 -0.788824 -0.989641 8.40804 -0.985629 -1.18805 8.33665 -1.18227 -1.38662 8.25099 -1.37876 -1.58535 8.15105 -1.57508 -1.78424 8.03684 -1.77124 -1.98329 7.90835 -1.96725 -2.18251 7.76558 -2.16309 -2.38188 7.60853 -2.35877 -2.58141 7.43721 -2.55429 -2.78111 7.25161 -2.74965 -2.98096 7.05174 3.21692 2.52299 7.05232 3.01225 2.33181 7.25021 2.80807 2.14014 7.43397 2.60436 1.94799 7.6036 2.40114 1.75536 7.75908 2.19839 1.56224 7.90044 1.99613 1.36865 8.02766 1.79435 1.17457 8.14074 1.59305 0.980012 8.23969 1.39224 0.784972 8.3245 1.1919 0.589452 8.39517 0.992048 0.393449 8.45172 0.792676 0.196965 8.49412 0.593785 1.13798e-15 8.52239 0.395375 -0.197447 8.53653 0.197447 -0.395375 8.53653 -2.65621e-14 -0.593785 8.52239 -0.196965 -0.792676 8.49412 -0.393449 -0.992048 8.45172 -0.589452 -1.1919 8.39517 -0.784972 -1.39224 8.3245 -0.980012 -1.59305 8.23969 -1.17457 -1.79435 8.14074 -1.36865 -1.99613 8.02766 -1.56224 -2.19839 7.90044 -1.75536 -2.40114 7.75908 -1.94799 -2.60436 7.6036 -2.14014 -2.80807 7.43397 -2.33181 -3.01225 7.25021 -2.52299 -3.21692 7.05232 3.45754 2.30099 7.05349 3.24774 2.11366 7.24742 3.03874 1.92552 7.4275 2.83054 1.73658 7.59372 2.62314 1.54683 7.7461 2.41654 1.35629 7.88462 2.21075 1.16494 8.00929 2.00576 0.97279 8.12011 1.80158 0.779837 8.21708 1.59819 0.586081 8.30019 1.39561 0.391523 8.36945 1.19383 0.196163 8.42486 0.992851 4.35763e-15 8.46642 0.792676 -0.196965 8.49412 0.593303 -0.394733 8.50797 0.394733 -0.593303 8.50797 0.196965 -0.792676 8.49412 -3.37924e-14 -0.992851 8.46642 -0.196163 -1.19383 8.42486 -0.391523 -1.39561 8.36945 -0.586081 -1.59819 8.30019 -0.779837 -1.80158 8.21708 -0.97279 -2.00576 8.12011 -1.16494 -2.21075 8.00929 -1.35629 -2.41654 7.88462 -1.54683 -2.62314 7.7461 -1.73658 -2.83054 7.59372 -1.92552 -3.03874 7.4275 -2.11366 -3.24774 7.24742 -2.30099 -3.45754 7.05349 3.70281 2.08365 7.05524 3.48755 1.89984 7.24322 3.27341 1.71491 7.41778 3.0604 1.52886 7.57892 2.84851 1.34168 7.72662 2.63774 1.15339 7.8609 2.4281 0.963963 7.98175 2.21958 0.773417 8.08917 2.01218 0.581748 8.18316 1.80591 0.388956 8.26373 1.60076 0.195039 8.33087 1.39673 6.60583e-15 8.38458 1.19383 -0.196163 8.42486 0.992048 -0.393449 8.45172 0.791392 -0.591859 8.46514 0.591859 -0.791392 8.46514 0.393449 -0.992048 8.45172 0.196163 -1.19383 8.42486 -4.36526e-14 -1.39673 8.38458 -0.195039 -1.60076 8.33087 -0.388956 -1.80591 8.26373 -0.581748 -2.01218 8.18316 -0.773417 -2.21958 8.08917 -0.963963 -2.4281 7.98175 -1.15339 -2.63774 7.8609 -1.34168 -2.84851 7.72662 -1.52886 -3.0604 7.57892 -1.71491 -3.27341 7.41778 -1.89984 -3.48755 7.24322 -2.08365 -3.70281 7.05524 3.95274 1.87095 7.05757 3.7317 1.69036 7.23763 3.51211 1.50832 7.40483 3.29396 1.32483 7.55917 3.07725 1.1399 7.70065 2.86199 0.953532 7.82926 2.64817 0.765714 7.94502 2.4358 0.576452 8.04791 2.22488 0.385746 8.13794 2.01539 0.193595 8.21511 1.80735 8.82627e-15 8.27942 1.60076 -0.195039 8.33087 1.39561 -0.391523 8.36945 1.1919 -0.589452 8.39517 0.989641 -0.788824 8.40804 0.788824 -0.989641 8.40804 0.589452 -1.1919 8.39517 0.391523 -1.39561 8.36945 0.195039 -1.60076 8.33087 -5.64132e-14 -1.80735 8.27942 -0.193595 -2.01539 8.21511 -0.385746 -2.22488 8.13794 -0.576452 -2.4358 8.04791 -0.765714 -2.64817 7.94502 -0.953532 -2.86199 7.82926 -1.1399 -3.07725 7.70065 -1.32483 -3.29396 7.55917 -1.50832 -3.51211 7.40483 -1.69036 -3.7317 7.23763 -1.87095 -3.95274 7.05757 4.20732 1.66291 7.06049 3.98018 1.48521 7.23064 3.75481 1.30574 7.38864 3.5312 1.1245 7.53449 3.30936 0.941495 7.66818 3.08929 0.756727 7.78972 2.87098 0.570193 7.89911 2.65443 0.381894 7.99634 2.43965 0.19183 8.08142 2.22664 1.04361e-14 8.15434 2.01539 -0.193595 8.21511 1.80591 -0.388956 8.26373 1.59819 -0.586081 8.30019 1.39224 -0.784972 8.3245 1.18805 -0.985629 8.33665 0.985629 -1.18805 8.33665 0.784972 -1.39224 8.3245 0.586081 -1.59819 8.30019 0.388956 -1.80591 8.26373 0.193595 -2.01539 8.21511 -7.17204e-14 -2.22664 8.15434 -0.19183 -2.43965 8.08142 -0.381894 -2.65443 7.99634 -0.570193 -2.87098 7.89911 -0.756727 -3.08929 7.78972 -0.941495 -3.30936 7.66818 -1.1245 -3.5312 7.53449 -1.30574 -3.75481 7.38864 -1.48521 -3.98018 7.23064 -1.66291 -4.20732 7.06049 4.46655 1.45953 7.06399 4.233 1.28439 7.22225 4.00153 1.10717 7.36922 3.77214 0.927854 7.50487 3.54485 0.746456 7.62923 3.31964 0.562971 7.74227 3.09651 0.3774 7.84402 2.87547 0.189743 7.93446 2.65652 1.22402e-14 8.01359 2.43965 -0.19183 8.08142 2.22488 -0.385746 8.13794 2.01218 -0.581748 8.18316 1.80158 -0.779837 8.21708 1.59305 -0.980012 8.23969 1.38662 -1.18227 8.25099 1.18227 -1.38662 8.25099 0.980012 -1.59305 8.23969 0.779837 -1.80158 8.21708 0.581748 -2.01218 8.18316 0.385746 -2.22488 8.13794 0.19183 -2.43965 8.08142 -8.9817e-14 -2.65652 8.01359 -0.189743 -2.87547 7.93446 -0.3774 -3.09651 7.84402 -0.562971 -3.31964 7.74227 -0.746456 -3.54485 7.62923 -0.927854 -3.77214 7.50487 -1.10717 -4.00153 7.36922 -1.28439 -4.233 7.22225 -1.45953 -4.46655 7.06399 4.73044 1.2608 7.06807 4.49014 1.08791 7.21247 4.25226 0.912607 7.34655 4.01677 0.734901 7.47032 3.7837 0.554786 7.58378 3.55303 0.372265 7.68692 3.32477 0.187336 7.77974 3.09892 1.30729e-14 7.86226 2.87547 -0.189743 7.93446 2.65443 -0.381894 7.99634 2.4358 -0.576452 8.04791 2.21958 -0.773417 8.08917 2.00576 -0.97279 8.12011 1.79435 -1.17457 8.14074 1.58535 -1.37876 8.15105 1.37876 -1.58535 8.15105 1.17457 -1.79435 8.14074 0.97279 -2.00576 8.12011 0.773417 -2.21958 8.08917 0.576452 -2.4358 8.04791 0.381894 -2.65443 7.99634 0.189743 -2.87547 7.93446 -1.10578e-13 -3.09892 7.86226 -0.187336 -3.32477 7.77974 -0.372265 -3.55303 7.68692 -0.554786 -3.7837 7.58378 -0.734901 -4.01677 7.47032 -0.912607 -4.25226 7.34655 -1.08791 -4.49014 7.21247 -1.2608 -4.73044 7.06807 4.99898 1.06672 7.07273 4.75163 0.895756 7.20128 4.507 0.722062 7.32065 4.26509 0.545639 7.43083 4.02592 0.366487 7.53183 3.78948 0.184608 7.62365 3.55576 1.43219e-14 7.70629 3.32477 -0.187336 7.77974 3.09651 -0.3774 7.84402 2.87098 -0.570193 7.89911 2.64817 -0.765714 7.94502 2.4281 -0.963963 7.98175 2.21075 -1.16494 8.00929 1.99613 -1.36865 8.02766 1.78424 -1.57508 8.03684 1.57508 -1.78424 8.03684 1.36865 -1.99613 8.02766 1.16494 -2.21075 8.00929 0.963963 -2.4281 7.98175 0.765714 -2.64817 7.94502 0.570193 -2.87098 7.89911 0.3774 -3.09651 7.84402 0.187336 -3.32477 7.77974 -1.33671e-13 -3.55576 7.70629 -0.184608 -3.78948 7.62365 -0.366487 -4.02592 7.53183 -0.545639 -4.26509 7.43083 -0.722062 -4.507 7.32065 -0.895756 -4.75163 7.20128 -1.06672 -4.99898 7.07273 5.27218 0.8773 7.07798 5.01744 0.707939 7.1887 4.76575 0.535528 7.29151 4.51711 0.360068 7.3864 4.27151 0.181559 7.47339 4.02897 1.3517e-14 7.55248 3.78948 -0.184608 7.62365 3.55303 -0.372265 7.68692 3.31964 -0.562971 7.74227 3.08929 -0.756727 7.78972 2.86199 -0.953532 7.82926 2.63774 -1.15339 7.8609 2.41654 -1.35629 7.88462 2.19839 -1.56224 7.90044 1.98329 -1.77124 7.90835 1.77124 -1.98329 7.90835 1.56224 -2.19839 7.90044 1.35629 -2.41654 7.88462 1.15339 -2.63774 7.8609 0.953532 -2.86199 7.82926 0.756727 -3.08929 7.78972 0.562971 -3.31964 7.74227 0.372265 -3.55303 7.68692 0.184608 -3.78948 7.62365 -1.60205e-13 -4.02897 7.55248 -0.181559 -4.27151 7.47339 -0.360068 -4.51711 7.3864 -0.535528 -4.76575 7.29151 -0.707939 -5.01744 7.1887 -0.8773 -5.27218 7.07798 5.55003 0.692532 7.08382 5.28759 0.524454 7.17472 5.02851 0.353006 7.25913 4.77281 0.178188 7.33704 4.52048 1.37945e-14 7.40847 4.27151 -0.181559 7.47339 4.02592 -0.366487 7.53183 3.7837 -0.554786 7.58378 3.54485 -0.746456 7.62923 3.30936 -0.941495 7.66818 3.07725 -1.1399 7.70065 2.84851 -1.34168 7.72662 2.62314 -1.54683 7.7461 2.40114 -1.75536 7.75908 2.18251 -1.96725 7.76558 1.96725 -2.18251 7.76558 1.75536 -2.40114 7.75908 1.54683 -2.62314 7.7461 1.34168 -2.84851 7.72662 1.1399 -3.07725 7.70065 0.941495 -3.30936 7.66818 0.746456 -3.54485 7.62923 0.554786 -3.7837 7.58378 0.366487 -4.02592 7.53183 0.181559 -4.27151 7.47339 -1.89404e-13 -4.52048 7.40847 -0.178188 -4.77281 7.33704 -0.353006 -5.02851 7.25913 -0.524454 -5.28759 7.17472 -0.692532 -5.55003 7.08382 5.83254 0.512418 7.09023 5.56207 0.345303 7.15934 5.29529 0.174497 7.22351 5.0322 1.24553e-14 7.28274 4.77281 -0.178188 7.33704 4.51711 -0.360068 7.3864 4.26509 -0.545639 7.43083 4.01677 -0.734901 7.47032 3.77214 -0.927854 7.50487 3.5312 -1.1245 7.53449 3.29396 -1.32483 7.55917 3.0604 -1.52886 7.57892 2.83054 -1.73658 7.59372 2.60436 -1.94799 7.6036 2.38188 -2.16309 7.60853 2.16309 -2.38188 7.60853 1.94799 -2.60436 7.6036 1.73658 -2.83054 7.59372 1.52886 -3.0604 7.57892 1.32483 -3.29396 7.55917 1.1245 -3.5312 7.53449 0.927854 -3.77214 7.50487 0.734901 -4.01677 7.47032 0.545639 -4.26509 7.43083 0.360068 -4.51711 7.3864 0.178188 -4.77281 7.33704 -2.20712e-13 -5.0322 7.28274 -0.174497 -5.29529 7.22351 -0.345303 -5.56207 7.15934 -0.512418 -5.83254 7.09023 6.1197 0.336958 7.09723 5.84088 0.170485 7.14256 5.56608 1.10641e-14 7.18466 5.29529 -0.174497 7.22351 5.02851 -0.353006 7.25913 4.76575 -0.535528 7.29151 4.507 -0.722062 7.32065 4.25226 -0.912607 7.34655 4.00153 -1.10717 7.36922 3.75481 -1.30574 7.38864 3.51211 -1.50832 7.40483 3.27341 -1.71491 7.41778 3.03874 -1.92552 7.4275 2.80807 -2.14014 7.43397 2.58141 -2.35877 7.43721 2.35877 -2.58141 7.43721 2.14014 -2.80807 7.43397 1.92552 -3.03874 7.4275 1.71491 -3.27341 7.41778 1.50832 -3.51211 7.40483 1.30574 -3.75481 7.38864 1.10717 -4.00153 7.36922 0.912607 -4.25226 7.34655 0.722062 -4.507 7.32065 0.535528 -4.76575 7.29151 0.353006 -5.02851 7.25913 0.174497 -5.29529 7.22351 -2.54907e-13 -5.56608 7.18466 -0.170485 -5.84088 7.14256 -0.336958 -6.1197 7.09723 6.41151 0.166152 7.10482 6.12403 1.0182e-14 7.12439 5.84088 -0.170485 7.14256 5.56207 -0.345303 7.15934 5.28759 -0.524454 7.17472 5.01744 -0.707939 7.1887 4.75163 -0.895756 7.20128 4.49014 -1.08791 7.21247 4.233 -1.28439 7.22225 3.98018 -1.48521 7.23064 3.7317 -1.69036 7.23763 3.48755 -1.89984 7.24322 3.24774 -2.11366 7.24742 3.01225 -2.33181 7.25021 2.78111 -2.55429 7.25161 2.55429 -2.78111 7.25161 2.33181 -3.01225 7.25021 2.11366 -3.24774 7.24742 1.89984 -3.48755 7.24322 1.69036 -3.7317 7.23763 1.48521 -3.98018 7.23064 1.28439 -4.233 7.22225 1.08791 -4.49014 7.21247 0.895756 -4.75163 7.20128 0.707939 -5.01744 7.1887 0.524454 -5.28759 7.17472 0.345303 -5.56207 7.15934 0.170485 -5.84088 7.14256 -2.91767e-13 -6.12403 7.12439 -0.166152 -6.41151 7.10482 6.70798 6.66134e-15 7.11298 6.41151 -0.166152 7.10482 6.1197 -0.336958 7.09723 5.83254 -0.512418 7.09023 5.55003 -0.692532 7.08382 5.27218 -0.8773 7.07798 4.99898 -1.06672 7.07273 4.73044 -1.2608 7.06807 4.46655 -1.45953 7.06399 4.20732 -1.66291 7.06049 3.95274 -1.87095 7.05757 3.70281 -2.08365 7.05524 3.45754 -2.30099 7.05349 3.21692 -2.52299 7.05232 2.98096 -2.74965 7.05174 2.74965 -2.98096 7.05174 2.52299 -3.21692 7.05232 2.30099 -3.45754 7.05349 2.08365 -3.70281 7.05524 1.87095 -3.95274 7.05757 1.66291 -4.20732 7.06049 1.45953 -4.46655 7.06399 1.2608 -4.73044 7.06807 1.06672 -4.99898 7.07273 0.8773 -5.27218 7.07798 0.692532 -5.55003 7.08382 0.512418 -5.83254 7.09023 0.336958 -6.1197 7.09723 0.166152 -6.41151 7.10482 -3.30846e-13 -6.70798 7.11298 6.26166e-14 6.00345 14.6715 -0.229695 5.81912 14.7022 -0.45777 5.63316 14.7307 -0.684225 5.44558 14.757 -0.909061 5.25639 14.7811 -1.13228 5.06557 14.8031 -1.35387 4.87314 14.8228 -1.57385 4.67908 14.8404 -1.7922 4.4834 14.8557 -2.00894 4.28611 14.8689 -2.22405 4.08719 14.8798 -2.43755 3.88666 14.8886 -2.64942 3.6845 14.8952 -2.85968 3.48073 14.8996 -3.06831 3.27533 14.9018 -3.27533 3.06831 14.9018 -3.48073 2.85968 14.8996 -3.6845 2.64942 14.8952 -3.88666 2.43755 14.8886 -4.08719 2.22405 14.8798 -4.28611 2.00894 14.8689 -4.4834 1.7922 14.8557 -4.67908 1.57385 14.8404 -4.87314 1.35387 14.8228 -5.06557 1.13228 14.8031 -5.25639 0.909061 14.7811 -5.44558 0.684225 14.757 -5.63316 0.45777 14.7307 -5.81912 0.229695 14.7022 -6.00345 -1.57652e-13 14.6715 0.229695 5.81912 14.7022 5.30099e-14 5.63165 14.7279 -0.228187 5.44268 14.7517 -0.454865 5.2522 14.7737 -0.680036 5.06021 14.7939 -0.903698 4.86671 14.8123 -1.12585 4.67171 14.8288 -1.3465 4.47519 14.8435 -1.56563 4.27717 14.8563 -1.78326 4.07764 14.8673 -1.99938 3.8766 14.8765 -2.214 3.67406 14.8838 -2.4271 3.47 14.8893 -2.6387 3.26444 14.893 -2.84879 3.05737 14.8948 -3.05737 2.84879 14.8948 -3.26444 2.6387 14.893 -3.47 2.4271 14.8893 -3.67406 2.214 14.8838 -3.8766 1.99938 14.8765 -4.07764 1.78326 14.8673 -4.27717 1.56563 14.8563 -4.47519 1.3465 14.8435 -4.67171 1.12585 14.8288 -4.86671 0.903698 14.8123 -5.06021 0.680036 14.7939 -5.2522 0.454865 14.7737 -5.44268 0.228187 14.7517 -5.63165 -1.46201e-13 14.7279 -5.81912 -0.229695 14.7022 0.45777 5.63316 14.7307 0.228187 5.44268 14.7517 4.53532e-14 5.2508 14.7712 -0.22679 5.05753 14.7893 -0.452184 4.86286 14.8058 -0.676181 4.66679 14.8208 -0.898782 4.46933 14.8343 -1.11999 4.27047 14.8463 -1.33979 4.07021 14.8568 -1.55821 3.86856 14.8658 -1.77522 3.66551 14.8734 -1.99084 3.46106 14.8794 -2.20506 3.25522 14.8839 -2.41788 3.04798 14.8869 -2.62931 2.83935 14.8884 -2.83935 2.62931 14.8884 -3.04798 2.41788 14.8869 -3.25522 2.20506 14.8839 -3.46106 1.99084 14.8794 -3.66551 1.77522 14.8734 -3.86856 1.55821 14.8658 -4.07021 1.33979 14.8568 -4.27047 1.11999 14.8463 -4.46933 0.898782 14.8343 -4.66679 0.676181 14.8208 -4.86286 0.452184 14.8058 -5.05753 0.22679 14.7893 -5.2508 -1.34837e-13 14.7712 -5.44268 -0.228187 14.7517 -5.63316 -0.45777 14.7307 0.684225 5.44558 14.757 0.454865 5.2522 14.7737 0.22679 5.05753 14.7893 3.76675e-14 4.86157 14.8036 -0.225506 4.66433 14.8167 -0.449726 4.46581 14.8287 -0.672662 4.266 14.8394 -0.894313 4.0649 14.849 -1.11468 3.86253 14.8573 -1.33376 3.65886 14.8645 -1.55156 3.45391 14.8705 -1.76807 3.24768 14.8753 -1.9833 3.04016 14.8788 -2.19724 2.83136 14.8812 -2.4099 2.62127 14.8824 -2.62127 2.4099 14.8824 -2.83136 2.19724 14.8812 -3.04016 1.9833 14.8788 -3.24768 1.76807 14.8753 -3.45391 1.55156 14.8705 -3.65886 1.33376 14.8645 -3.86253 1.11468 14.8573 -4.0649 0.894313 14.849 -4.266 0.672662 14.8394 -4.46581 0.449726 14.8287 -4.66433 0.225506 14.8167 -4.86157 -1.24402e-13 14.8036 -5.05753 -0.22679 14.7893 -5.2522 -0.454865 14.7737 -5.44558 -0.684225 14.757 0.909061 5.25639 14.7811 0.680036 5.06021 14.7939 0.452184 4.86286 14.8058 0.225506 4.66433 14.8167 2.97762e-14 4.46464 14.8268 -0.224332 4.26376 14.8359 -0.447492 4.06172 14.8441 -0.669478 3.8585 14.8514 -0.890291 3.65411 14.8578 -1.10993 3.44855 14.8633 -1.3284 3.24181 14.8678 -1.54569 3.0339 14.8715 -1.76181 2.82482 14.8742 -1.97676 2.61457 14.876 -2.19054 2.40314 14.877 -2.40314 2.19054 14.877 -2.61457 1.97676 14.876 -2.82482 1.76181 14.8742 -3.0339 1.54569 14.8715 -3.24181 1.3284 14.8678 -3.44855 1.10993 14.8633 -3.65411 0.890291 14.8578 -3.8585 0.669478 14.8514 -4.06172 0.447492 14.8441 -4.26376 0.224332 14.8359 -4.46464 -1.1263e-13 14.8268 -4.66433 -0.225506 14.8167 -4.86286 -0.452184 14.8058 -5.06021 -0.680036 14.7939 -5.25639 -0.909061 14.7811 1.13228 5.06557 14.8031 0.903698 4.86671 14.8123 0.676181 4.66679 14.8208 0.449726 4.46581 14.8287 0.224332 4.26376 14.8359 2.37895e-14 4.06066 14.8425 -0.223271 3.85649 14.8484 -0.445481 3.65126 14.8536 -0.666629 3.44498 14.8582 -0.886716 3.23762 14.8622 -1.10574 3.02921 14.8654 -1.32371 2.81974 14.8681 -1.54061 2.6092 14.87 -1.75645 2.39761 14.8713 -1.97123 2.18495 14.872 -2.18495 1.97123 14.872 -2.39761 1.75645 14.8713 -2.6092 1.54061 14.87 -2.81974 1.32371 14.8681 -3.02921 1.10574 14.8654 -3.23762 0.886716 14.8622 -3.44498 0.666629 14.8582 -3.65126 0.445481 14.8536 -3.85649 0.223271 14.8484 -4.06066 -1.02362e-13 14.8425 -4.26376 -0.224332 14.8359 -4.46581 -0.449726 14.8287 -4.66679 -0.676181 14.8208 -4.86671 -0.903698 14.8123 -5.06557 -1.13228 14.8031 1.35387 4.87314 14.8228 1.12585 4.67171 14.8288 0.898782 4.46933 14.8343 0.672662 4.266 14.8394 0.447492 4.06172 14.8441 0.223271 3.85649 14.8484 1.73353e-14 3.65031 14.8522 -0.222321 3.44319 14.8556 -0.443693 3.23511 14.8586 -0.664115 3.02608 14.8611 -0.883588 2.81611 14.8633 -1.10211 2.60518 14.865 -1.31968 2.39331 14.8663 -1.53631 2.18048 14.8671 -1.75198 1.96671 14.8675 -1.96671 1.75198 14.8675 -2.18048 1.53631 14.8671 -2.39331 1.31968 14.8663 -2.60518 1.10211 14.865 -2.81611 0.883588 14.8633 -3.02608 0.664115 14.8611 -3.23511 0.443693 14.8586 -3.44319 0.222321 14.8556 -3.65031 -9.17202e-14 14.8522 -3.85649 -0.223271 14.8484 -4.06172 -0.447492 14.8441 -4.266 -0.672662 14.8394 -4.46933 -0.898782 14.8343 -4.67171 -1.12585 14.8288 -4.87314 -1.35387 14.8228 1.57385 4.67908 14.8404 1.3465 4.47519 14.8435 1.11999 4.27047 14.8463 0.894313 4.0649 14.849 0.669478 3.8585 14.8514 0.445481 3.65126 14.8536 0.222321 3.44319 14.8556 1.16355e-14 3.23427 14.8574 -0.221484 3.02452 14.8589 -0.442129 2.81393 14.8602 -0.661937 2.6025 14.8614 -0.880907 2.39023 14.8622 -1.09904 2.17713 14.8629 -1.31633 1.96319 14.8633 -1.53279 1.74841 14.8636 -1.74841 1.53279 14.8636 -1.96319 1.31633 14.8633 -2.17713 1.09904 14.8629 -2.39023 0.880907 14.8622 -2.6025 0.661937 14.8614 -2.81393 0.442129 14.8602 -3.02452 0.221484 14.8589 -3.23427 -8.17974e-14 14.8574 -3.44319 -0.222321 14.8556 -3.65126 -0.445481 14.8536 -3.8585 -0.669478 14.8514 -4.0649 -0.894313 14.849 -4.27047 -1.11999 14.8463 -4.47519 -1.3465 14.8435 -4.67908 -1.57385 14.8404 1.7922 4.4834 14.8557 1.56563 4.27717 14.8563 1.33979 4.07021 14.8568 1.11468 3.86253 14.8573 0.890291 3.65411 14.8578 0.666629 3.44498 14.8582 0.443693 3.23511 14.8586 0.221484 3.02452 14.8589 6.12192e-15 2.8132 14.8592 -0.220757 2.60116 14.8595 -0.440789 2.38839 14.8597 -0.660094 2.1749 14.8598 -0.878672 1.96067 14.86 -1.09652 1.74573 14.86 -1.31365 1.53005 14.8601 -1.53005 1.31365 14.8601 -1.74573 1.09652 14.86 -1.96067 0.878672 14.86 -2.1749 0.660094 14.8598 -2.38839 0.440789 14.8597 -2.60116 0.220757 14.8595 -2.8132 -7.13127e-14 14.8592 -3.02452 -0.221484 14.8589 -3.23511 -0.443693 14.8586 -3.44498 -0.666629 14.8582 -3.65411 -0.890291