<?xml version="1.0"?> 
<VTKFile type="StructuredGrid" version="0.1"> 
<StructuredGrid WholeExtent="0 14 0 14 0 29"> 
<Piece Extent="0 14 0 14 0 29"> 
<PointData>
<DataArray type="Float32" Name="efield" format="ascii" NumberOfComponents="3"> 
-8.52651e-14 11.6539 -4.47123 -0.673547 10.6626 -4.74967 -1.37154 9.69572 -4.98528 -2.09397 8.75331 -5.17805 -2.84084 7.83535 -5.32798 -3.61215 6.94182 -5.43507 -4.40791 6.07274 -5.49933 -5.2281 5.2281 -5.52075 -6.07274 4.40791 -5.49933 -6.94182 3.61215 -5.43507 -7.83535 2.84084 -5.32798 -8.75331 2.09397 -5.17805 -9.69572 1.37154 -4.98528 -10.6626 0.673547 -4.74967 -11.6539 7.19425e-14 -4.47123 0.673547 10.6626 -4.74967 -4.56109e-14 9.71667 -4.91066 -0.694497 8.79172 -5.04687 -1.40994 7.88772 -5.15832 -2.14634 7.00467 -5.245 -2.90369 6.14258 -5.30692 -3.68198 5.30143 -5.34407 -4.48123 4.48123 -5.35645 -5.30143 3.68198 -5.34407 -6.14258 2.90369 -5.30692 -7.00467 2.14634 -5.245 -7.88772 1.40994 -5.15832 -8.79172 0.694497 -5.04687 -9.71667 5.75292e-14 -4.91066 -10.6626 -0.673547 -4.74967 1.37154 9.69572 -4.98528 0.694497 8.79172 -5.04687 -1.67344e-14 7.90518 -5.09899 -0.711955 7.0361 -5.14163 -1.44137 6.18448 -5.1748 -2.18824 5.35031 -5.19848 -2.95257 4.53361 -5.2127 -3.73436 3.73436 -5.21744 -4.53361 2.95257 -5.2127 -5.35031 2.18824 -5.19848 -6.18448 1.44137 -5.1748 -7.0361 0.711955 -5.14163 -7.90518 4.24768e-14 -5.09899 -8.79172 -0.694497 -5.04687 -9.69572 -1.37154 -4.98528 2.09397 8.75331 -5.17805 1.40994 7.88772 -5.15832 0.711955 7.0361 -5.14163 -1.1256e-15 6.19844 -5.12797 -0.725922 5.37475 -5.11735 -1.46581 4.56503 -5.10976 -2.21967 3.76928 -5.10521 -2.98749 2.98749 -5.10369 -3.76928 2.21967 -5.10521 -4.56503 1.46581 -5.10976 -5.37475 0.725922 -5.11735 -6.19844 2.01557e-14 -5.12797 -7.0361 -0.711955 -5.14163 -7.88772 -1.40994 -5.15832 -8.75331 -2.09397 -5.17805 2.84084 7.83535 -5.32798 2.14634 7.00467 -5.245 1.44137 6.18448 -5.1748 0.725922 5.37475 -5.11735 2.8607e-15 4.57551 -5.07267 -0.736397 3.78674 -5.04076 -1.48327 3.00844 -5.02161 -2.24062 2.24062 -5.01523 -3.00844 1.48327 -5.02161 -3.78674 0.736397 -5.04076 -4.57551 -5.07284e-15 -5.07267 -5.37475 -0.725922 -5.11735 -6.18448 -1.44137 -5.1748 -7.00467 -2.14634 -5.245 -7.83535 -2.84084 -5.32798 3.61215 6.94182 -5.43507 2.90369 6.14258 -5.30692 2.18824 5.35031 -5.19848 1.46581 4.56503 -5.10976 0.736397 3.78674 -5.04076 -5.28808e-15 3.01542 -4.99147 -0.74338 2.25109 -4.9619 -1.49374 1.49374 -4.95204 -2.25109 0.74338 -4.9619 -3.01542 -3.36491e-14 -4.99147 -3.78674 -0.736397 -5.04076 -4.56503 -1.46581 -5.10976 -5.35031 -2.18824 -5.19848 -6.14258 -2.90369 -5.30692 -6.94182 -3.61215 -5.43507 4.40791 6.07274 -5.49933 3.68198 5.30143 -5.34407 2.95257 4.53361 -5.2127 2.21967 3.76928 -5.10521 1.48327 3.00844 -5.02161 0.74338 2.25109 -4.9619 -2.56127e-14 1.49724 -4.92607 -0.746872 0.746872 -4.91412 -1.49724 -6.34565e-14 -4.92607 -2.25109 -0.74338 -4.9619 -3.00844 -1.48327 -5.02161 -3.76928 -2.21967 -5.10521 -4.53361 -2.95257 -5.2127 -5.30143 -3.68198 -5.34407 -6.07274 -4.40791 -5.49933 5.2281 5.2281 -5.52075 4.48123 4.48123 -5.35645 3.73436 3.73436 -5.21744 2.98749 2.98749 -5.10369 2.24062 2.24062 -5.01523 1.49374 1.49374 -4.95204 0.746872 0.746872 -4.91412 -5.77155e-14 -9.76159e-14 -4.90149 -0.746872 -0.746872 -4.91412 -1.49374 -1.49374 -4.95204 -2.24062 -2.24062 -5.01523 -2.98749 -2.98749 -5.10369 -3.73436 -3.73436 -5.21744 -4.48123 -4.48123 -5.35645 -5.2281 -5.2281 -5.52075 6.07274 4.40791 -5.49933 5.30143 3.68198 -5.34407 4.53361 2.95257 -5.2127 3.76928 2.21967 -5.10521 3.00844 1.48327 -5.02161 2.25109 0.74338 -4.9619 1.49724 -6.15619e-14 -4.92607 0.746872 -0.746872 -4.91412 -2.14932e-14 -1.49724 -4.92607 -0.74338 -2.25109 -4.9619 -1.48327 -3.00844 -5.02161 -2.21967 -3.76928 -5.10521 -2.95257 -4.53361 -5.2127 -3.68198 -5.30143 -5.34407 -4.40791 -6.07274 -5.49933 6.94182 3.61215 -5.43507 6.14258 2.90369 -5.30692 5.35031 2.18824 -5.19848 4.56503 1.46581 -5.10976 3.78674 0.736397 -5.04076 3.01542 -2.09832e-14 -4.99147 2.25109 -0.74338 -4.9619 1.49374 -1.49374 -4.95204 0.74338 -2.25109 -4.9619 1.14075e-14 -3.01542 -4.99147 -0.736397 -3.78674 -5.04076 -1.46581 -4.56503 -5.10976 -2.18824 -5.35031 -5.19848 -2.90369 -6.14258 -5.30692 -3.61215 -6.94182 -5.43507 7.83535 2.84084 -5.32798 7.00467 2.14634 -5.245 6.18448 1.44137 -5.1748 5.37475 0.725922 -5.11735 4.57551 2.74225e-14 -5.07267 3.78674 -0.736397 -5.04076 3.00844 -1.48327 -5.02161 2.24062 -2.24062 -5.01523 1.48327 -3.00844 -5.02161 0.736397 -3.78674 -5.04076 4.2133e-14 -4.57551 -5.07267 -0.725922 -5.37475 -5.11735 -1.44137 -6.18448 -5.1748 -2.14634 -7.00467 -5.245 -2.84084 -7.83535 -5.32798 8.75331 2.09397 -5.17805 7.88772 1.40994 -5.15832 7.0361 0.711955 -5.14163 6.19844 8.20455e-14 -5.12797 5.37475 -0.725922 -5.11735 4.56503 -1.46581 -5.10976 3.76928 -2.21967 -5.10521 2.98749 -2.98749 -5.10369 2.21967 -3.76928 -5.10521 1.46581 -4.56503 -5.10976 0.725922 -5.37475 -5.11735 6.92779e-14 -6.19844 -5.12797 -0.711955 -7.0361 -5.14163 -1.40994 -7.88772 -5.15832 -2.09397 -8.75331 -5.17805 9.69572 1.37154 -4.98528 8.79172 0.694497 -5.04687 7.90518 1.41331e-13 -5.09899 7.0361 -0.711955 -5.14163 6.18448 -1.44137 -5.1748 5.35031 -2.18824 -5.19848 4.53361 -2.95257 -5.2127 3.73436 -3.73436 -5.21744 2.95257 -4.53361 -5.2127 2.18824 -5.35031 -5.19848 1.44137 -6.18448 -5.1748 0.711955 -7.0361 -5.14163 9.41469e-14 -7.90518 -5.09899 -0.694497 -8.79172 -5.04687 -1.37154 -9.69572 -4.98528 10.6626 0.673547 -4.74967 9.71667 2.05259e-13 -4.91066 8.79172 -0.694497 -5.04687 7.88772 -1.40994 -5.15832 7.00467 -2.14634 -5.245 6.14258 -2.90369 -5.30692 5.30143 -3.68198 -5.34407 4.48123 -4.48123 -5.35645 3.68198 -5.30143 -5.34407 2.90369 -6.14258 -5.30692 2.14634 -7.00467 -5.245 1.40994 -7.88772 -5.15832 0.694497 -8.79172 -5.04687 1.16351e-13 -9.71667 -4.91066 -0.673547 -10.6626 -4.74967 11.6539 2.78e-13 -4.47123 10.6626 -0.673547 -4.74967 9.69572 -1.37154 -4.98528 8.75331 -2.09397 -5.17805 7.83535 -2.84084 -5.32798 6.94182 -3.61215 -5.43507 6.07274 -4.40791 -5.49933 5.2281 -5.2281 -5.52075 4.40791 -6.07274 -5.49933 3.61215 -6.94182 -5.43507 2.84084 -7.83535 -5.32798 2.09397 -8.75331 -5.17805 1.37154 -9.69572 -4.98528 0.673547 -10.6626 -4.74967 1.36779e-13 -11.6539 -4.47123 -6.57252e-14 9.43677 8.18036 -0.722365 8.81102 7.93667 -1.4373 8.17785 7.73047 -2.1448 7.53724 7.56176 -2.84487 6.8892 7.43054 -3.5375 6.23372 7.33681 -4.2227 5.57081 7.28057 -4.90048 4.90048 7.26183 -5.57081 4.2227 7.28057 -6.23372 3.5375 7.33681 -6.8892 2.84487 7.43054 -7.53724 2.1448 7.56176 -8.17785 1.4373 7.73047 -8.81102 0.722365 7.93667 -9.43677 1.02141e-14 8.18036 0.722365 8.81102 7.93667 -4.99678e-14 8.17148 7.67447 -0.715994 7.52556 7.45261 -1.42562 6.87327 7.27109 -2.12887 6.21461 7.12991 -2.82575 5.54958 7.02906 -3.51627 4.87818 6.96856 -4.20041 4.20041 6.94839 -4.87818 3.51627 6.96856 -5.54958 2.82575 7.02906 -6.21461 2.12887 7.12991 -6.87327 1.42562 7.27109 -7.52556 0.715994 7.45261 -8.17148 5.16594e-15 7.67447 -8.81102 -0.722365 7.93667 1.4373 8.17785 7.73047 0.715994 7.52556 7.45261 -3.68922e-14 6.86796 7.21751 -0.710685 6.20505 7.02514 -1.41606 5.53684 6.87553 -2.11613 4.86331 6.76866 -2.81089 4.18448 6.70454 -3.50034 3.50034 6.68317 -4.18448 2.81089 6.70454 -4.86331 2.11613 6.76866 -5.53684 1.41606 6.87553 -6.20505 0.710685 7.02514 -6.86796 3.28983e-15 7.21751 -7.52556 -0.715994 7.45261 -8.17785 -1.4373 7.73047 2.1448 7.53724 7.56176 1.42562 6.87327 7.27109 0.710685 6.20505 7.02514 -2.37304e-14 5.53259 6.82392 -0.706438 4.85588 6.6674 -1.40863 4.17493 6.55561 -2.10657 3.48972 6.48853 -2.80027 2.80027 6.46617 -3.48972 2.10657 6.48853 -4.17493 1.40863 6.55561 -4.85588 0.706438 6.6674 -5.53259 -2.54797e-16 6.82392 -6.20505 -0.710685 7.02514 -6.87327 -1.42562 7.27109 -7.53724 -2.1448 7.56176 2.84487 6.8892 7.43054 2.12887 6.21461 7.12991 1.41606 5.53684 6.87553 0.706438 4.85588 6.6674 -1.01149e-14 4.17174 6.50553 -0.703253 3.48441 6.3899 -1.40332 2.7939 6.32052 -2.1002 2.1002 6.2974 -2.7939 1.40332 6.32052 -3.48441 0.703253 6.3899 -4.17174 -2.48143e-15 6.50553 -4.85588 -0.706438 6.6674 -5.53684 -1.41606 6.87553 -6.21461 -2.12887 7.12991 -6.8892 -2.84487 7.43054 3.5375 6.23372 7.33681 2.82575 5.54958 7.02906 2.11613 4.86331 6.76866 1.40863 4.17493 6.55561 0.703253 3.48441 6.3899 3.50983e-15 2.79178 6.27154 -0.70113 2.09702 6.20052 -1.40014 1.40014 6.17685 -2.09702 0.70113 6.20052 -2.79178 -4.03259e-15 6.27154 -3.48441 -0.703253 6.3899 -4.17493 -1.40863 6.55561 -4.86331 -2.11613 6.76866 -5.54958 -2.82575 7.02906 -6.23372 -3.5375 7.33681 4.2227 5.57081 7.28057 3.51627 4.87818 6.96856 2.81089 4.18448 6.70454 2.10657 3.48972 6.48853 1.40332 2.7939 6.32052 0.70113 2.09702 6.20052 1.66645e-14 1.39907 6.12852 -0.700068 0.700068 6.10451 -1.39907 -2.78911e-15 6.12852 -2.09702 -0.70113 6.20052 -2.7939 -1.40332 6.32052 -3.48972 -2.10657 6.48853 -4.18448 -2.81089 6.70454 -4.87818 -3.51627 6.96856 -5.57081 -4.2227 7.28057 4.90048 4.90048 7.26183 4.20041 4.20041 6.94839 3.50034 3.50034 6.68317 2.80027 2.80027 6.46617 2.1002 2.1002 6.2974 1.40014 1.40014 6.17685 0.700068 0.700068 6.10451 2.95919e-14 -2.31413e-15 6.0804 -0.700068 -0.700068 6.10451 -1.40014 -1.40014 6.17685 -2.1002 -2.1002 6.2974 -2.80027 -2.80027 6.46617 -3.50034 -3.50034 6.68317 -4.20041 -4.20041 6.94839 -4.90048 -4.90048 7.26183 5.57081 4.2227 7.28057 4.87818 3.51627 6.96856 4.18448 2.81089 6.70454 3.48972 2.10657 6.48853 2.7939 1.40332 6.32052 2.09702 0.70113 6.20052 1.39907 -6.71685e-15 6.12852 0.700068 -0.700068 6.10451 1.87584e-14 -1.39907 6.12852 -0.70113 -2.09702 6.20052 -1.40332 -2.7939 6.32052 -2.10657 -3.48972 6.48853 -2.81089 -4.18448 6.70454 -3.51627 -4.87818 6.96856 -4.2227 -5.57081 7.28057 6.23372 3.5375 7.33681 5.54958 2.82575 7.02906 4.86331 2.11613 6.76866 4.17493 1.40863 6.55561 3.48441 0.703253 6.3899 2.79178 -1.00753e-14 6.27154 2.09702 -0.70113 6.20052 1.40014 -1.40014 6.17685 0.70113 -2.09702 6.20052 8.99975e-15 -2.79178 6.27154 -0.703253 -3.48441 6.3899 -1.40863 -4.17493 6.55561 -2.11613 -4.86331 6.76866 -2.82575 -5.54958 7.02906 -3.5375 -6.23372 7.33681 6.8892 2.84487 7.43054 6.21461 2.12887 7.12991 5.53684 1.41606 6.87553 4.85588 0.706438 6.6674 4.17174 -9.4369e-15 6.50553 3.48441 -0.703253 6.3899 2.7939 -1.40332 6.32052 2.1002 -2.1002 6.2974 1.40332 -2.7939 6.32052 0.703253 -3.48441 6.3899 1.27676e-15 -4.17174 6.50553 -0.706438 -4.85588 6.6674 -1.41606 -5.53684 6.87553 -2.12887 -6.21461 7.12991 -2.84487 -6.8892 7.43054 7.53724 2.1448 7.56176 6.87327 1.42562 7.27109 6.20505 0.710685 7.02514 5.53259 -7.06379e-15 6.82392 4.85588 -0.706438 6.6674 4.17493 -1.40863 6.55561 3.48972 -2.10657 6.48853 2.80027 -2.80027 6.46617 2.10657 -3.48972 6.48853 1.40863 -4.17493 6.55561 0.706438 -4.85588 6.6674 -6.71685e-15 -5.53259 6.82392 -0.710685 -6.20505 7.02514 -1.42562 -6.87327 7.27109 -2.1448 -7.53724 7.56176 8.17785 1.4373 7.73047 7.52556 0.715994 7.45261 6.86796 -2.6576e-15 7.21751 6.20505 -0.710685 7.02514 5.53684 -1.41606 6.87553 4.86331 -2.11613 6.76866 4.18448 -2.81089 6.70454 3.50034 -3.50034 6.68317 2.81089 -4.18448 6.70454 2.11613 -4.86331 6.76866 1.41606 -5.53684 6.87553 0.710685 -6.20505 7.02514 -1.15463e-14 -6.86796 7.21751 -0.715994 -7.52556 7.45261 -1.4373 -8.17785 7.73047 8.81102 0.722365 7.93667 8.17148 4.09395e-15 7.67447 7.52556 -0.715994 7.45261 6.87327 -1.42562 7.27109 6.21461 -2.12887 7.12991 5.54958 -2.82575 7.02906 4.87818 -3.51627 6.96856 4.20041 -4.20041 6.94839 3.51627 -4.87818 6.96856 2.82575 -5.54958 7.02906 2.12887 -6.21461 7.12991 1.42562 -6.87327 7.27109 0.715994 -7.52556 7.45261 -1.70974e-14 -8.17148 7.67447 -0.722365 -8.81102 7.93667 9.43677 1.33227e-14 8.18036 8.81102 -0.722365 7.93667 8.17785 -1.4373 7.73047 7.53724 -2.1448 7.56176 6.8892 -2.84487 7.43054 6.23372 -3.5375 7.33681 5.57081 -4.2227 7.28057 4.90048 -4.90048 7.26183 4.2227 -5.57081 7.28057 3.5375 -6.23372 7.33681 2.84487 -6.8892 7.43054 2.1448 -7.53724 7.56176 1.4373 -8.17785 7.73047 0.722365 -8.81102 7.93667 -2.08722e-14 -9.43677 8.18036 -7.9492e-14 6.70189 16.9395 -0.51264 6.25712 16.7079 -1.02006 5.80712 16.5119 -1.52226 5.35191 16.3515 -2.01924 4.89148 16.2268 -2.51099 4.42582 16.1377 -2.99753 3.95495 16.0843 -3.47885 3.47885 16.0665 -3.95495 2.99753 16.0843 -4.42582 2.51099 16.1377 -4.89148 2.01924 16.2268 -5.35191 1.52226 16.3515 -5.80712 1.02006 16.5119 -6.25712 0.51264 16.7079 -6.70189 -3.25961e-13 16.9395 0.51264 6.25712 16.7079 -5.84803e-14 5.80265 16.4874 -0.508165 5.34371 16.3009 -1.01186 4.88029 16.1483 -1.51107 4.4124 16.0296 -2.00581 3.94003 15.9448 -2.49608 3.46319 15.894 -2.98187 2.98187 15.877 -3.46319 2.49608 15.894 -3.94003 2.00581 15.9448 -4.4124 1.51107 16.0296 -4.88029 1.01186 16.1483 -5.34371 0.508165 16.3009 -5.80265 -2.47997e-13 16.4874 -6.25712 -0.51264 16.7079 1.02006 5.80712 16.5119 0.508165 5.34371 16.3009 -4.31538e-14 4.87656 16.1224 -0.504436 4.40568 15.9764 -1.00514 3.93108 15.8628 -1.50212 3.45275 15.7816 -1.99537 2.97068 15.7329 -2.48489 2.48489 15.7167 -2.97068 1.99537 15.7329 -3.45275 1.50212 15.7816 -3.93108 1.00514 15.8628 -4.40568 0.504436 15.9764 -4.87656 -1.86197e-13 16.1224 -5.34371 -0.508165 16.3009 -5.80712 -1.02006 16.5119 1.52226 5.35191 16.3515 1.01186 4.88029 16.1483 0.504436 4.40568 15.9764 -3.69098e-14 3.9281 15.8357 -0.501453 3.44753 15.7262 -0.999923 2.96397 15.6481 -1.49541 2.47743 15.6012 -1.98791 1.98791 15.5855 -2.47743 1.49541 15.6012 -2.96397 0.999923 15.6481 -3.44753 0.501453 15.7262 -3.9281 -1.4342e-13 15.8357 -4.40568 -0.504436 15.9764 -4.88029 -1.01186 16.1483 -5.35191 -1.52226 16.3515 2.01924 4.89148 16.2268 1.51107 4.4124 16.0296 1.00514 3.93108 15.8628 0.501453 3.44753 15.7262 -3.77613e-14 2.96173 15.62 -0.499216 2.47371 15.5442 -0.996194 1.98344 15.4987 -1.49094 1.49094 15.4835 -1.98344 0.996194 15.4987 -2.47371 0.499216 15.5442 -2.96173 -1.17749e-13 15.62 -3.44753 -0.501453 15.7262 -3.93108 -1.00514 15.8628 -4.4124 -1.51107 16.0296 -4.89148 -2.01924 16.2268 2.51099 4.42582 16.1377 2.00581 3.94003 15.9448 1.50212 3.45275 15.7816 0.999923 2.96397 15.6481 0.499216 2.47371 15.5442 -4.71836e-14 1.98195 15.47 -0.497724 1.4887 15.4255 -0.993957 0.993957 15.4107 -1.4887 0.497724 15.4255 -1.98195 -1.10931e-13 15.47 -2.47371 -0.499216 15.5442 -2.96397 -0.999923 15.6481 -3.45275 -1.50212 15.7816 -3.94003 -2.00581 15.9448 -4.42582 -2.51099 16.1377 2.99753 3.95495 16.0843 2.49608 3.46319 15.894 1.99537 2.97068 15.7329 1.49541 2.47743 15.6012 0.996194 1.98344 15.4987 0.497724 1.4887 15.4255 -6.37656e-14 0.993211 15.3816 -0.496978 0.496978 15.3669 -0.993211 -1.1909e-13 15.3816 -1.4887 -0.497724 15.4255 -1.98344 -0.996194 15.4987 -2.47743 -1.49541 15.6012 -2.97068 -1.99537 15.7329 -3.46319 -2.49608 15.894 -3.95495 -2.99753 16.0843 3.47885 3.47885 16.0665 2.98187 2.98187 15.877 2.48489 2.48489 15.7167 1.98791 1.98791 15.5855 1.49094 1.49094 15.4835 0.993957 0.993957 15.4107 0.496978 0.496978 15.3669 -8.74981e-14 -1.4576e-13 15.3524 -0.496978 -0.496978 15.3669 -0.993957 -0.993957 15.4107 -1.49094 -1.49094 15.4835 -1.98791 -1.98791 15.5855 -2.48489 -2.48489 15.7167 -2.98187 -2.98187 15.877 -3.47885 -3.47885 16.0665 3.95495 2.99753 16.0843 3.46319 2.49608 15.894 2.97068 1.99537 15.7329 2.47743 1.49541 15.6012 1.98344 0.996194 15.4987 1.4887 0.497724 15.4255 0.993211 -1.22735e-13 15.3816 0.496978 -0.496978 15.3669 -5.30721e-14 -0.993211 15.3816 -0.497724 -1.4887 15.4255 -0.996194 -1.98344 15.4987 -1.49541 -2.47743 15.6012 -1.99537 -2.97068 15.7329 -2.49608 -3.46319 15.894 -2.99753 -3.95495 16.0843 4.42582 2.51099 16.1377 3.94003 2.00581 15.9448 3.45275 1.50212 15.7816 2.96397 0.999923 15.6481 2.47371 0.499216 15.5442 1.98195 -1.11189e-13 15.47 1.4887 -0.497724 15.4255 0.993957 -0.993957 15.4107 0.497724 -1.4887 15.4255 -1.90681e-14 -1.98195 15.47 -0.499216 -2.47371 15.5442 -0.999923 -2.96397 15.6481 -1.50212 -3.45275 15.7816 -2.00581 -3.94003 15.9448 -2.51099 -4.42582 16.1377 4.89148 2.01924 16.2268 4.4124 1.51107 16.0296 3.93108 1.00514 15.8628 3.44753 0.501453 15.7262 2.96173 -1.07442e-13 15.62 2.47371 -0.499216 15.5442 1.98344 -0.996194 15.4987 1.49094 -1.49094 15.4835 0.996194 -1.98344 15.4987 0.499216 -2.47371 15.5442 1.38778e-14 -2.96173 15.62 -0.501453 -3.44753 15.7262 -1.00514 -3.93108 15.8628 -1.51107 -4.4124 16.0296 -2.01924 -4.89148 16.2268 5.35191 1.52226 16.3515 4.88029 1.01186 16.1483 4.40568 0.504436 15.9764 3.9281 -1.14325e-13 15.8357 3.44753 -0.501453 15.7262 2.96397 -0.999923 15.6481 2.47743 -1.49541 15.6012 1.98791 -1.98791 15.5855 1.49541 -2.47743 15.6012 0.999923 -2.96397 15.6481 0.501453 -3.44753 15.7262 4.65183e-14 -3.9281 15.8357 -0.504436 -4.40568 15.9764 -1.01186 -4.88029 16.1483 -1.52226 -5.35191 16.3515 5.80712 1.02006 16.5119 5.34371 0.508165 16.3009 4.87656 -1.30937e-13 16.1224 4.40568 -0.504436 15.9764 3.93108 -1.00514 15.8628 3.45275 -1.50212 15.7816 2.97068 -1.99537 15.7329 2.48489 -2.48489 15.7167 1.99537 -2.97068 15.7329 1.50212 -3.45275 15.7816 1.00514 -3.93108 15.8628 0.504436 -4.40568 15.9764 7.81597e-14 -4.87656 16.1224 -0.508165 -5.34371 16.3009 -1.02006 -5.80712 16.5119 6.25712 0.51264 16.7079 5.80265 -1.58391e-13 16.4874 5.34371 -0.508165 16.3009 4.88029 -1.01186 16.1483 4.4124 -1.51107 16.0296 3.94003 -2.00581 15.9448 3.46319 -2.49608 15.894 2.98187 -2.98187 15.877 2.49608 -3.46319 15.894 2.00581 -3.94003 15.9448 1.51107 -4.4124 16.0296 1.01186 -4.88029 16.1483 0.508165 -5.34371 16.3009 1.09246e-13 -5.80265 16.4874 -0.51264 -6.25712 16.7079 6.70189 -1.93179e-13 16.9395 6.25712 -0.51264 16.7079 5.80712 -1.02006 16.5119 5.35191 -1.52226 16.3515 4.89148 -2.01924 16.2268 4.42582 -2.51099 16.1377 3.95495 -2.99753 16.0843 3.47885 -3.47885 16.0665 2.99753 -3.95495 16.0843 2.51099 -4.42582 16.1377 2.01924 -4.89148 16.2268 1.52226 -5.35191 16.3515 1.02006 -5.80712 16.5119 0.51264 -6.25712 16.7079 1.39444e-13 -6.70189 16.9395 1.44738e-13 5.92201 18.1042 -0.515332 5.59134 17.8451 -1.01646 5.24647 17.6259 -1.50338 4.88739 17.4466 -1.9761 4.5141 17.3071 -2.43461 4.12662 17.2075 -2.87892 3.72492 17.1477 -3.30902 3.30902 17.1278 -3.72492 2.87892 17.1477 -4.12662 2.43461 17.2075 -4.5141 1.9761 17.3071 -4.88739 1.50338 17.4466 -5.24647 1.01646 17.6259 -5.59134 0.515332 17.8451 -5.92201 -9.11909e-14 18.1042 0.515332 5.59134 17.8451 1.08904e-13 5.23429 17.6425 -0.503156 4.86507 17.471 -0.994137 4.48367 17.3308 -1.47294 4.09009 17.2217 -1.93957 3.68434 17.1437 -2.39403 3.26641 17.097 -2.83631 2.83631 17.0814 -3.26641 2.39403 17.097 -3.68434 1.93957 17.1437 -4.09009 1.47294 17.2217 -4.48367 0.994137 17.3308 -4.86507 0.503156 17.471 -5.23429 -7.09458e-14 17.6425 -5.59134 -0.515332 17.8451 1.01646 5.24647 17.6259 0.503156 4.86507 17.471 7.48727e-14 4.47352 17.34 -0.49301 4.07183 17.2328 -0.975874 3.65999 17.1494 -1.44859 3.238 17.0898 -1.91116 2.80587 17.054 -2.36359 2.36359 17.0421 -2.80587 1.91116 17.054 -3.238 1.44859 17.0898 -3.65999 0.975874 17.1494 -4.07183 0.49301 17.2328 -4.47352 -5.30917e-14 17.34 -4.86507 -0.503156 17.471 -5.24647 -1.01646 17.6259 1.50338 4.88739 17.4466 0.994137 4.48367 17.3308 0.49301 4.07183 17.2328 4.13586e-14 3.65187 17.1526 -0.484893 3.22379 17.0902 -0.961669 2.7876 17.0457 -1.43033 2.3433 17.0189 -1.89087 1.89087 17.01 -2.3433 1.43033 17.0189 -2.7876 0.961669 17.0457 -3.22379 0.484893 17.0902 -3.65187 -4.41015e-14 17.1526 -4.07183 -0.49301 17.2328 -4.48367 -0.994137 17.3308 -4.88739 -1.50338 17.4466 1.9761 4.5141 17.3071 1.47294 4.09009 17.2217 0.975874 3.65999 17.1494 0.484893 3.22379 17.0902 8.39523e-15 2.78152 17.0442 -0.478805 2.33315 17.0113 -0.951523 1.87869 16.9916 -1.41815 1.41815 16.985 -1.87869 0.951523 16.9916 -2.33315 0.478805 17.0113 -2.78152 -4.06956e-14 17.0442 -3.22379 -0.484893 17.0902 -3.65999 -0.975874 17.1494 -4.09009 -1.47294 17.2217 -4.5141 -1.9761 17.3071 2.43461 4.12662 17.2075 1.93957 3.68434 17.1437 1.44859 3.238 17.0898 0.961669 2.7876 17.0457 0.478805 2.33315 17.0113 -2.2644e-14 1.87464 16.9868 -0.474747 1.41207 16.9721 -0.945435 0.945435 16.9672 -1.41207 0.474747 16.9721 -1.87464 -4.34822e-14 16.9868 -2.33315 -0.478805 17.0113 -2.7876 -0.961669 17.0457 -3.238 -1.44859 17.0898 -3.68434 -1.93957 17.1437 -4.12662 -2.43461 17.2075 2.87892 3.72492 17.1477 2.39403 3.26641 17.097 1.91116 2.80587 17.054 1.43033 2.3433 17.0189 0.951523 1.87869 16.9916 0.474747 1.41207 16.9721 -5.32018e-14 0.943406 16.9604 -0.472718 0.472718 16.9565 -0.943406 -5.10497e-14 16.9604 -1.41207 -0.474747 16.9721 -1.87869 -0.951523 16.9916 -2.3433 -1.43033 17.0189 -2.80587 -1.91116 17.054 -3.26641 -2.39403 17.097 -3.72492 -2.87892 17.1477 3.30902 3.30902 17.1278 2.83631 2.83631 17.0814 2.36359 2.36359 17.0421 1.89087 1.89087 17.01 1.41815 1.41815 16.985 0.945435 0.945435 16.9672 0.472718 0.472718 16.9565 -8.26078e-14 -6.57243e-14 16.9529 -0.472718 -0.472718 16.9565 -0.945435 -0.945435 16.9672 -1.41815 -1.41815 16.985 -1.89087 -1.89087 17.01 -2.36359 -2.36359 17.0421 -2.83631 -2.83631 17.0814 -3.30902 -3.30902 17.1278 3.72492 2.87892 17.1477 3.26641 2.39403 17.097 2.80587 1.91116 17.054 2.3433 1.43033 17.0189 1.87869 0.951523 16.9916 1.41207 0.474747 16.9721 0.943406 -5.86631e-14 16.9604 0.472718 -0.472718 16.9565 -4.15769e-14 -0.943406 16.9604 -0.474747 -1.41207 16.9721 -0.951523 -1.87869 16.9916 -1.43033 -2.3433 17.0189 -1.91116 -2.80587 17.054 -2.39403 -3.26641 17.097 -2.87892 -3.72492 17.1477 4.12662 2.43461 17.2075 3.68434 1.93957 17.1437 3.238 1.44859 17.0898 2.7876 0.961669 17.0457 2.33315 0.478805 17.0113 1.87464 -5.31992e-14 16.9868 1.41207 -0.474747 16.9721 0.945435 -0.945435 16.9672 0.474747 -1.41207 16.9721 5.83149e-15 -1.87464 16.9868 -0.478805 -2.33315 17.0113 -0.961669 -2.7876 17.0457 -1.44859 -3.238 17.0898 -1.93957 -3.68434 17.1437 -2.43461 -4.12662 17.2075 4.5141 1.9761 17.3071 4.09009 1.47294 17.2217 3.65999 0.975874 17.1494 3.22379 0.484893 17.0902 2.78152 -4.66597e-14 17.0442 2.33315 -0.478805 17.0113 1.87869 -0.951523 16.9916 1.41815 -1.41815 16.985 0.951523 -1.87869 16.9916 0.478805 -2.33315 17.0113 5.92421e-14 -2.78152 17.0442 -0.484893 -3.22379 17.0902 -0.975874 -3.65999 17.1494 -1.47294 -4.09009 17.2217 -1.9761 -4.5141 17.3071 4.88739 1.50338 17.4466 4.48367 0.994137 17.3308 4.07183 0.49301 17.2328 3.65187 -4.17622e-14 17.1526 3.22379 -0.484893 17.0902 2.7876 -0.961669 17.0457 2.3433 -1.43033 17.0189 1.89087 -1.89087 17.01 1.43033 -2.3433 17.0189 0.961669 -2.7876 17.0457 0.484893 -3.22379 17.0902 1.18215e-13 -3.65187 17.1526 -0.49301 -4.07183 17.2328 -0.994137 -4.48367 17.3308 -1.50338 -4.88739 17.4466 5.24647 1.01646 17.6259 4.86507 0.503156 17.471 4.47352 -3.51767e-14 17.34 4.07183 -0.49301 17.2328 3.65999 -0.975874 17.1494 3.238 -1.44859 17.0898 2.80587 -1.91116 17.054 2.36359 -2.36359 17.0421 1.91116 -2.80587 17.054 1.44859 -3.238 17.0898 0.975874 -3.65999 17.1494 0.49301 -4.07183 17.2328 1.83195e-13 -4.47352 17.34 -0.503156 -4.86507 17.471 -1.01646 -5.24647 17.6259 5.59134 0.515332 17.8451 5.23429 -3.1383e-14 17.6425 4.86507 -0.503156 17.471 4.48367 -0.994137 17.3308 4.09009 -1.47294 17.2217 3.68434 -1.93957 17.1437 3.26641 -2.39403 17.097 2.83631 -2.83631 17.0814 2.39403 -3.26641 17.097 1.93957 -3.68434 17.1437 1.47294 -4.09009 17.2217 0.994137 -4.48367 17.3308 0.503156 -4.86507 17.471 2.54168e-13 -5.23429 17.6425 -0.515332 -5.59134 17.8451 5.92201 -2.50772e-14 18.1042 5.59134 -0.515332 17.8451 5.24647 -1.01646 17.6259 4.88739 -1.50338 17.4466 4.5141 -1.9761 17.3071 4.12662 -2.43461 17.2075 3.72492 -2.87892 17.1477 3.30902 -3.30902 17.1278 2.87892 -3.72492 17.1477 2.43461 -4.12662 17.2075 1.9761 -4.5141 17.3071 1.50338 -4.88739 17.4466 1.01646 -5.24647 17.6259 0.515332 -5.59134 17.8451 3.3076e-13 -5.92201 18.1042 2.57974e-13 5.25617 19.3313 -0.507836 5.01312 19.1225 -0.995303 4.74971 18.9457 -1.4624 4.46593 18.8011 -1.90913 4.16178 18.6886 -2.33549 3.83726 18.6082 -2.74149 3.49237 18.56 -3.12711 3.12711 18.544 -3.49237 2.74149 18.56 -3.83726 2.33549 18.6082 -4.16178 1.90913 18.6886 -4.46593 1.4624 18.8011 -4.74971 0.995303 18.9457 -5.01312 0.507836 19.1225 -5.25617 6.99718e-14 19.3313 0.507836 5.01312 19.1225 1.93037e-13 4.73225 18.9488 -0.490377 4.43392 18.8018 -0.963295 4.11813 18.6815 -1.41875 3.78488 18.588 -1.85676 3.43417 18.5212 -2.2773 3.06601 18.4811 -2.68038 2.68038 18.4677 -3.06601 2.2773 18.4811 -3.43417 1.85676 18.5212 -3.78488 1.41875 18.588 -4.11813 0.963295 18.6815 -4.43392 0.490377 18.8018 -4.73225 5.19094e-14 18.9488 -5.01312 -0.507836 19.1225 0.995303 4.74971 18.9457 0.490377 4.43392 18.8018 1.32393e-13 4.10358 18.68 -0.475828 3.75869 18.5804 -0.937107 3.39926 18.5029 -1.38384 3.02527 18.4475 -1.81602 2.63673 18.4143 -2.23365 2.23365 18.4032 -2.63673 1.81602 18.4143 -3.02527 1.38384 18.4475 -3.39926 0.937107 18.5029 -3.75869 0.475828 18.5804 -4.10358 3.88325e-14 18.68 -4.43392 -0.490377 18.8018 -4.74971 -0.995303 18.9457 1.4624 4.46593 18.8011 0.963295 4.11813 18.6815 0.475828 3.75869 18.5804 7.91974e-14 3.38762 18.4976 -0.464189 3.0049 18.4332 -0.916739 2.61055 18.3873 -1.35765 2.20455 18.3597 -1.78692 1.78692 18.3505 -2.20455 1.35765 18.3597 -2.61055 0.916739 18.3873 -3.0049 0.464189 18.4332 -3.38762 2.51053e-14 18.4976 -3.75869 -0.475828 18.5804 -4.11813 -0.963295 18.6815 -4.46593 -1.4624 18.8011 1.90913 4.16178 18.6886 1.41875 3.78488 18.588 0.937107 3.39926 18.5029 0.464189 3.0049 18.4332 3.19916e-14 2.60182 18.3791 -0.45546 2.19 18.3404 -0.90219 1.76946 18.3172 -1.34019 1.34019 18.3094 -1.76946 0.90219 18.3172 -2.19 0.45546 18.3404 -2.60182 1.35421e-14 18.3791 -3.0049 -0.464189 18.4332 -3.39926 -0.937107 18.5029 -3.78488 -1.41875 18.588 -4.16178 -1.90913 18.6886 2.33549 3.83726 18.6082 1.85676 3.43417 18.5212 1.38384 3.02527 18.4475 0.916739 2.61055 18.3873 0.45546 2.19 18.3404 -8.93293e-15 1.76364 18.3069 -0.44964 1.33146 18.2868 -0.89346 0.89346 18.2801 -1.33146 0.44964 18.2868 -1.76364 3.40719e-15 18.3069 -2.19 -0.45546 18.3404 -2.61055 -0.916739 18.3873 -3.02527 -1.38384 18.4475 -3.43417 -1.85676 18.5212 -3.83726 -2.33549 18.6082 2.74149 3.49237 18.56 2.2773 3.06601 18.4811 1.81602 2.63673 18.4143 1.35765 2.20455 18.3597 0.90219 1.76946 18.3172 0.44964 1.33146 18.2868 -4.41902e-14 0.890551 18.2686 -0.44673 0.44673 18.2625 -0.890551 -3.66671e-15 18.2686 -1.33146 -0.44964 18.2868 -1.76946 -0.90219 18.3172 -2.20455 -1.35765 18.3597 -2.63673 -1.81602 18.4143 -3.06601 -2.2773 18.4811 -3.49237 -2.74149 18.56 3.12711 3.12711 18.544 2.68038 2.68038 18.4677 2.23365 2.23365 18.4032 1.78692 1.78692 18.3505 1.34019 1.34019 18.3094 0.89346 0.89346 18.2801 0.44673 0.44673 18.2625 -7.35244e-14 -1.0554e-14 18.2567 -0.44673 -0.44673 18.2625 -0.89346 -0.89346 18.2801 -1.34019 -1.34019 18.3094 -1.78692 -1.78692 18.3505 -2.23365 -2.23365 18.4032 -2.68038 -2.68038 18.4677 -3.12711 -3.12711 18.544 3.49237 2.74149 18.56 3.06601 2.2773 18.4811 2.63673 1.81602 18.4143 2.20455 1.35765 18.3597 1.76946 0.90219 18.3172 1.33146 0.44964 18.2868 0.890551 -1.47295e-14 18.2686 0.44673 -0.44673 18.2625 -3.1443e-14 -0.890551 18.2686 -0.44964 -1.33146 18.2868 -0.90219 -1.76946 18.3172 -1.35765 -2.20455 18.3597 -1.81602 -2.63673 18.4143 -2.2773 -3.06601 18.4811 -2.74149 -3.49237 18.56 3.83726 2.33549 18.6082 3.43417 1.85676 18.5212 3.02527 1.38384 18.4475 2.61055 0.916739 18.3873 2.19 0.45546 18.3404 1.76364 -1.4426e-14 18.3069 1.33146 -0.44964 18.2868 0.89346 -0.89346 18.2801 0.44964 -1.33146 18.2868 2.04489e-14 -1.76364 18.3069 -0.45546 -2.19 18.3404 -0.916739 -2.61055 18.3873 -1.38384 -3.02527 18.4475 -1.85676 -3.43417 18.5212 -2.33549 -3.83726 18.6082 4.16178 1.90913 18.6886 3.78488 1.41875 18.588 3.39926 0.937107 18.5029 3.0049 0.464189 18.4332 2.60182 -6.9892e-15 18.3791 2.19 -0.45546 18.3404 1.76946 -0.90219 18.3172 1.34019 -1.34019 18.3094 0.90219 -1.76946 18.3172 0.45546 -2.19 18.3404 8.21218e-14 -2.60182 18.3791 -0.464189 -3.0049 18.4332 -0.937107 -3.39926 18.5029 -1.41875 -3.78488 18.588 -1.90913 -4.16178 18.6886 4.46593 1.4624 18.8011 4.11813 0.963295 18.6815 3.75869 0.475828 18.5804 3.38762 5.95357e-15 18.4976 3.0049 -0.464189 18.4332 2.61055 -0.916739 18.3873 2.20455 -1.35765 18.3597 1.78692 -1.78692 18.3505 1.35765 -2.20455 18.3597 0.916739 -2.61055 18.3873 0.464189 -3.0049 18.4332 1.52305e-13 -3.38762 18.4976 -0.475828 -3.75869 18.5804 -0.963295 -4.11813 18.6815 -1.4624 -4.46593 18.8011 4.74971 0.995303 18.9457 4.43392 0.490377 18.8018 4.10358 2.50589e-14 18.68 3.75869 -0.475828 18.5804 3.39926 -0.937107 18.5029 3.02527 -1.38384 18.4475 2.63673 -1.81602 18.4143 2.23365 -2.23365 18.4032 1.81602 -2.63673 18.4143 1.38384 -3.02527 18.4475 0.937107 -3.39926 18.5029 0.475828 -3.75869 18.5804 2.32085e-13 -4.10358 18.68 -0.490377 -4.43392 18.8018 -0.995303 -4.74971 18.9457 5.01312 0.507836 19.1225 4.73225 4.81069e-14 18.9488 4.43392 -0.490377 18.8018 4.11813 -0.963295 18.6815 3.78488 -1.41875 18.588 3.43417 -1.85676 18.5212 3.06601 -2.2773 18.4811 2.68038 -2.68038 18.4677 2.2773 -3.06601 18.4811 1.85676 -3.43417 18.5212 1.41875 -3.78488 18.588 0.963295 -4.11813 18.6815 0.490377 -4.43392 18.8018 3.20396e-13 -4.73225 18.9488 -0.507836 -5.01312 19.1225 5.25617 7.92838e-14 19.3313 5.01312 -0.507836 19.1225 4.74971 -0.995303 18.9457 4.46593 -1.4624 18.8011 4.16178 -1.90913 18.6886 3.83726 -2.33549 18.6082 3.49237 -2.74149 18.56 3.12711 -3.12711 18.544 2.74149 -3.49237 18.56 2.33549 -3.83726 18.6082 1.90913 -4.16178 18.6886 1.4624 -4.46593 18.8011 0.995303 -4.74971 18.9457 0.507836 -5.01312 19.1225 4.19317e-13 -5.25617 19.3313 2.83107e-13 4.65954 20.5585 -0.486597 4.48049 20.3998 -0.949537 4.27778 20.2654 -1.38882 4.05142 20.1555 -1.80444 3.80139 20.0701 -2.19641 3.52771 20.009 -2.56472 3.23037 19.9724 -2.90938 2.90938 19.9602 -3.23037 2.56472 19.9724 -3.52771 2.19641 20.009 -3.80139 1.80444 20.0701 -4.05142 1.38882 20.1555 -4.27778 0.949537 20.2654 -4.48049 0.486597 20.3998 -4.65954 1.59039e-13 20.5585 0.486597 4.48049 20.3998 2.08242e-13 4.2575 20.255 -0.466319 4.01424 20.1325 -0.912361 3.7507 20.0323 -1.33812 3.46688 19.9543 -1.74361 3.16278 19.8987 -2.12882 2.8384 19.8652 -2.49375 2.49375 19.8541 -2.8384 2.12882 19.8652 -3.16278 1.74361 19.8987 -3.46688 1.33812 19.9543 -3.7507 0.912361 20.0323 -4.01424 0.466319 20.1325 -4.2575 1.20386e-13 20.255 -4.48049 -0.486597 20.3998 0.949537 4.27778 20.2654 0.466319 4.01424 20.1325 1.4188e-13 3.7338 20.02 -0.