<?xml version="1.0"?> 
<VTKFile type="StructuredGrid" version="0.1"> 
<StructuredGrid WholeExtent="0 14 0 14 0 29"> 
<Piece Extent="0 14 0 14 0 29"> 
<PointData>
<DataArray type="Float32" Name="efield" format="ascii" NumberOfComponents="3"> 
6.66134e-13 18.547 -5.22387 -1.128 17.0254 -5.66663 -2.28628 15.5341 -6.04127 -3.47483 14.0731 -6.34779 -4.69366 12.6424 -6.5862 -5.94275 11.2419 -6.75649 -7.22213 9.87169 -6.85867 -8.53177 8.53177 -6.89273 -9.87169 7.22213 -6.85867 -11.2419 5.94275 -6.75649 -12.6424 4.69366 -6.5862 -14.0731 3.47483 -6.34779 -15.5341 2.28628 -6.04127 -17.0254 1.128 -5.66663 -18.547 2.58993e-12 -5.22387 1.128 17.0254 -5.66663 5.25653e-13 15.5601 -5.83667 -1.15395 14.1207 -5.98055 -2.33385 12.7072 -6.09827 -3.5397 11.3197 -6.18983 -4.7715 9.95819 -6.25523 -6.02925 8.62259 -6.29447 -7.31295 7.31295 -6.30755 -8.62259 6.02925 -6.29447 -9.95819 4.7715 -6.25523 -11.3197 3.5397 -6.18983 -12.7072 2.33385 -6.09827 -14.1207 1.15395 -5.98055 -15.5601 2.84269e-12 -5.83667 -17.0254 -1.128 -5.66663 2.28628 15.5341 -6.04127 1.15395 14.1207 -5.98055 3.94405e-13 12.7288 -5.92917 -1.17558 11.3587 -5.88713 -2.37278 10.0101 -5.85444 -3.5916 8.68314 -5.83108 -4.83205 7.37782 -5.81707 -6.09412 6.09412 -5.8124 -7.37782 4.83205 -5.81707 -8.68314 3.5916 -5.83108 -10.0101 2.37278 -5.85444 -11.3587 1.17558 -5.88713 -12.7288 3.05529e-12 -5.92917 -14.1207 -1.15395 -5.98055 -15.5341 -2.28628 -6.04127 3.47483 14.0731 -6.34779 2.33385 12.7072 -6.09827 1.17558 11.3587 -5.88713 2.7639e-13 10.0274 -5.71439 -1.19288 8.71341 -5.58003 -2.40305 7.41674 -5.48406 -3.63052 6.13737 -5.42647 -4.8753 4.8753 -5.40728 -6.13737 3.63052 -5.42647 -7.41674 2.40305 -5.48406 -8.71341 1.19288 -5.58003 -10.0274 3.22081e-12 -5.71439 -11.3587 -1.17558 -5.88713 -12.7072 -2.33385 -6.09827 -14.0731 -3.47483 -6.34779 4.69366 12.6424 -6.5862 3.5397 11.3197 -6.18983 2.37278 10.0101 -5.85444 1.19288 8.71341 -5.58003 1.69171e-13 7.42972 -5.3666 -1.20585 6.15899 -5.21415 -2.42467 4.90125 -5.12268 -3.65647 3.65647 -5.09219 -4.90125 2.42467 -5.12268 -6.15899 1.20585 -5.21415 -7.42972 3.34165e-12 -5.3666 -8.71341 -1.19288 -5.58003 -10.0101 -2.37278 -5.85444 -11.3197 -3.5397 -6.18983 -12.6424 -4.69366 -6.5862 5.94275 11.2419 -6.75649 4.7715 9.95819 -6.25523 3.5916 8.68314 -5.83108 2.40305 7.41674 -5.48406 1.20585 6.15899 -5.21415 7.29712e-14 4.9099 -5.02135 -1.2145 3.66945 -4.90568 -2.43765 2.43765 -4.86712 -3.66945 1.2145 -4.90568 -4.9099 3.4166e-12 -5.02135 -6.15899 -1.20585 -5.21415 -7.41674 -2.40305 -5.48406 -8.68314 -3.5916 -5.83108 -9.95819 -4.7715 -6.25523 -11.2419 -5.94275 -6.75649 7.22213 9.87169 -6.85867 6.02925 8.62259 -6.29447 4.83205 7.37782 -5.81707 3.63052 6.13737 -5.42647 2.42467 4.90125 -5.12268 1.2145 3.66945 -4.90568 -1.13166e-14 2.44197 -4.77548 -1.21882 1.21882 -4.73208 -2.44197 3.44997e-12 -4.77548 -3.66945 -1.2145 -4.90568 -4.90125 -2.42467 -5.12268 -6.13737 -3.63052 -5.42647 -7.37782 -4.83205 -5.81707 -8.62259 -6.02925 -6.29447 -9.87169 -7.22213 -6.85867 8.53177 8.53177 -6.89273 7.31295 7.31295 -6.30755 6.09412 6.09412 -5.8124 4.8753 4.8753 -5.40728 3.65647 3.65647 -5.09219 2.43765 2.43765 -4.86712 1.21882 1.21882 -4.73208 -8.44459e-14 3.43403e-12 -4.68706 -1.21882 -1.21882 -4.73208 -2.43765 -2.43765 -4.86712 -3.65647 -3.65647 -5.09219 -4.8753 -4.8753 -5.40728 -6.09412 -6.09412 -5.8124 -7.31295 -7.31295 -6.30755 -8.53177 -8.53177 -6.89273 9.87169 7.22213 -6.85867 8.62259 6.02925 -6.29447 7.37782 4.83205 -5.81707 6.13737 3.63052 -5.42647 4.90125 2.42467 -5.12268 3.66945 1.2145 -4.90568 2.44197 3.51996e-12 -4.77548 1.21882 -1.21882 -4.73208 -1.11328e-13 -2.44197 -4.77548 -1.2145 -3.66945 -4.90568 -2.42467 -4.90125 -5.12268 -3.63052 -6.13737 -5.42647 -4.83205 -7.37782 -5.81707 -6.02925 -8.62259 -6.29447 -7.22213 -9.87169 -6.85867 11.2419 5.94275 -6.75649 9.95819 4.7715 -6.25523 8.68314 3.5916 -5.83108 7.41674 2.40305 -5.48406 6.15899 1.20585 -5.21415 4.9099 3.56515e-12 -5.02135 3.66945 -1.2145 -4.90568 2.43765 -2.43765 -4.86712 1.2145 -3.66945 -4.90568 -1.18322e-13 -4.9099 -5.02135 -1.20585 -6.15899 -5.21415 -2.40305 -7.41674 -5.48406 -3.5916 -8.68314 -5.83108 -4.7715 -9.95819 -6.25523 -5.94275 -11.2419 -6.75649 12.6424 4.69366 -6.5862 11.3197 3.5397 -6.18983 10.0101 2.37278 -5.85444 8.71341 1.19288 -5.58003 7.42972 3.57336e-12 -5.3666 6.15899 -1.20585 -5.21415 4.90125 -2.42467 -5.12268 3.65647 -3.65647 -5.09219 2.42467 -4.90125 -5.12268 1.20585 -6.15899 -5.21415 -1.04472e-13 -7.42972 -5.3666 -1.19288 -8.71341 -5.58003 -2.37278 -10.0101 -5.85444 -3.5397 -11.3197 -6.18983 -4.69366 -12.6424 -6.5862 14.0731 3.47483 -6.34779 12.7072 2.33385 -6.09827 11.3587 1.17558 -5.88713 10.0274 3.54278e-12 -5.71439 8.71341 -1.19288 -5.58003 7.41674 -2.40305 -5.48406 6.13737 -3.63052 -5.42647 4.8753 -4.8753 -5.40728 3.63052 -6.13737 -5.42647 2.40305 -7.41674 -5.48406 1.19288 -8.71341 -5.58003 -7.03881e-14 -10.0274 -5.71439 -1.17558 -11.3587 -5.88713 -2.33385 -12.7072 -6.09827 -3.47483 -14.0731 -6.34779 15.5341 2.28628 -6.04127 14.1207 1.15395 -5.98055 12.7288 3.47269e-12 -5.92917 11.3587 -1.17558 -5.88713 10.0101 -2.37278 -5.85444 8.68314 -3.5916 -5.83108 7.37782 -4.83205 -5.81707 6.09412 -6.09412 -5.8124 4.83205 -7.37782 -5.81707 3.5916 -8.68314 -5.83108 2.37278 -10.0101 -5.85444 1.17558 -11.3587 -5.88713 -1.64313e-14 -12.7288 -5.92917 -1.15395 -14.1207 -5.98055 -2.28628 -15.5341 -6.04127 17.0254 1.128 -5.66663 15.5601 3.35863e-12 -5.83667 14.1207 -1.15395 -5.98055 12.7072 -2.33385 -6.09827 11.3197 -3.5397 -6.18983 9.95819 -4.7715 -6.25523 8.62259 -6.02925 -6.29447 7.31295 -7.31295 -6.30755 6.02925 -8.62259 -6.29447 4.7715 -9.95819 -6.25523 3.5397 -11.3197 -6.18983 2.33385 -12.7072 -6.09827 1.15395 -14.1207 -5.98055 5.50671e-14 -15.5601 -5.83667 -1.128 -17.0254 -5.66663 18.547 3.20455e-12 -5.22387 17.0254 -1.128 -5.66663 15.5341 -2.28628 -6.04127 14.0731 -3.47483 -6.34779 12.6424 -4.69366 -6.5862 11.2419 -5.94275 -6.75649 9.87169 -7.22213 -6.85867 8.53177 -8.53177 -6.89273 7.22213 -9.87169 -6.85867 5.94275 -11.2419 -6.75649 4.69366 -12.6424 -6.5862 3.47483 -14.0731 -6.34779 2.28628 -15.5341 -6.04127 1.128 -17.0254 -5.66663 1.47438e-13 -18.547 -5.22387 4.54747e-13 16.4968 10.9628 -1.34925 15.4893 10.8443 -2.6722 14.4556 10.7439 -3.96886 13.3956 10.6619 -5.23923 12.3093 10.598 -6.4833 11.1967 10.5524 -7.70108 10.0578 10.5251 -8.89257 8.89257 10.516 -10.0578 7.70108 10.5251 -11.1967 6.4833 10.5524 -12.3093 5.23923 10.598 -13.3956 3.96886 10.6619 -14.4556 2.6722 10.7439 -15.4893 1.34925 10.8443 -16.4968 3.67129e-12 10.9628 1.34925 15.4893 10.8443 4.00377e-13 14.4331 10.681 -1.32671 13.3543 10.5429 -2.63088 12.2529 10.4299 -3.91252 11.1291 10.342 -5.17162 9.98264 10.2792 -6.40818 8.81369 10.2416 -7.6222 7.6222 10.229 -8.81369 6.40818 10.2416 -9.98264 5.17162 10.2792 -11.1291 3.91252 10.342 -12.2529 2.63088 10.4299 -13.3543 1.32671 10.5429 -14.4331 3.75043e-12 10.681 -15.4893 -1.34925 10.8443 2.6722 14.4556 10.7439 1.32671 13.3543 10.5429 3.58197e-13 12.2342 10.3728 -1.30793 11.0953 10.2336 -2.59708 9.93757 10.1254 -3.86744 8.76111 10.048 -5.11903 7.56586 10.0016 -6.35184 6.35184 9.98617 -7.56586 5.11903 10.0016 -8.76111 3.86744 10.048 -9.93757 2.59708 10.1254 -11.0953 1.30793 10.2336 -12.2342 3.82648e-12 10.3728 -13.3543 -1.32671 10.5429 -14.4556 -2.6722 10.7439 3.96886 13.3956 10.6619 2.63088 12.2529 10.4299 1.30793 11.0953 10.2336 3.26402e-13 9.92254 10.073 -1.2929 8.73481 9.9481 -2.57078 7.53206 9.85888 -3.83364 6.31427 9.80535 -5.08147 5.08147 9.7875 -6.31427 3.83364 9.80535 -7.53206 2.57078 9.85888 -8.73481 1.2929 9.9481 -9.92254 3.88863e-12 10.073 -11.0953 -1.30793 10.2336 -12.2529 -2.63088 10.4299 -13.3956 -3.96886 10.6619 5.23923 12.3093 10.598 3.91252 11.1291 10.342 2.59708 9.93757 10.1254 1.2929 8.73481 9.9481 3.04934e-13 7.52079 9.81023 -1.28164 6.29549 9.71176 -2.552 5.05893 9.65267 -3.8111 3.8111 9.63298 -5.05893 2.552 9.65267 -6.29549 1.28164 9.71176 -7.52079 3.9467e-12 9.81023 -8.73481 -1.2929 9.9481 -9.93757 -2.59708 10.1254 -11.1291 -3.91252 10.342 -12.3093 -5.23923 10.598 6.4833 11.1967 10.5524 5.17162 9.98264 10.2792 3.86744 8.76111 10.048 2.57078 7.53206 9.85888 1.28164 6.29549 9.71176 2.96898e-13 5.05142 9.60667 -1.27412 3.79983 9.54362 -2.54073 2.54073 9.5226 -3.79983 1.27412 9.54362 -5.05142 3.99402e-12 9.60667 -6.29549 -1.28164 9.71176 -7.53206 -2.57078 9.85888 -8.76111 -3.86744 10.048 -9.98264 -5.17162 10.2792 -11.1967 -6.4833 10.5524 7.70108 10.0578 10.5251 6.40818 8.81369 10.2416 5.11903 7.56586 10.0016 3.83364 6.31427 9.80535 2.552 5.05893 9.65267 1.27412 3.79983 9.54362 2.99143e-13 2.53698 9.47819 -1.27037 1.27037 9.45638 -2.53698 4.03792e-12 9.47819 -3.79983 -1.27412 9.54362 -5.05893 -2.552 9.65267 -6.31427 -3.83364 9.80535 -7.56586 -5.11903 10.0016 -8.81369 -6.40818 10.2416 -10.0578 -7.70108 10.5251 8.89257 8.89257 10.516 7.6222 7.6222 10.229 6.35184 6.35184 9.98617 5.08147 5.08147 9.7875 3.8111 3.8111 9.63298 2.54073 2.54073 9.5226 1.27037 1.27037 9.45638 3.13233e-13 4.07054e-12 9.43431 -1.27037 -1.27037 9.45638 -2.54073 -2.54073 9.5226 -3.8111 -3.8111 9.63298 -5.08147 -5.08147 9.7875 -6.35184 -6.35184 9.98617 -7.6222 -7.6222 10.229 -8.89257 -8.89257 10.516 10.0578 7.70108 10.5251 8.81369 6.40818 10.2416 7.56586 5.11903 10.0016 6.31427 3.83364 9.80535 5.05893 2.552 9.65267 3.79983 1.27412 9.54362 2.53698 4.133e-12 9.47819 1.27037 -1.27037 9.45638 1.83789e-13 -2.53698 9.47819 -1.27412 -3.79983 9.54362 -2.552 -5.05893 9.65267 -3.83364 -6.31427 9.80535 -5.11903 -7.56586 10.0016 -6.40818 -8.81369 10.2416 -7.70108 -10.0578 10.5251 11.1967 6.4833 10.5524 9.98264 5.17162 10.2792 8.76111 3.86744 10.048 7.53206 2.57078 9.85888 6.29549 1.28164 9.71176 5.05142 4.18077e-12 9.60667 3.79983 -1.27412 9.54362 2.54073 -2.54073 9.5226 1.27412 -3.79983 9.54362 6.33105e-14 -5.05142 9.60667 -1.28164 -6.29549 9.71176 -2.57078 -7.53206 9.85888 -3.86744 -8.76111 10.048 -5.17162 -9.98264 10.2792 -6.4833 -11.1967 10.5524 12.3093 5.23923 10.598 11.1291 3.91252 10.342 9.93757 2.59708 10.1254 8.73481 1.2929 9.9481 7.52079 4.22362e-12 9.81023 6.29549 -1.28164 9.71176 5.05893 -2.552 9.65267 3.8111 -3.8111 9.63298 2.552 -5.05893 9.65267 1.28164 -6.29549 9.71176 -4.82392e-14 -7.52079 9.81023 -1.2929 -8.73481 9.9481 -2.59708 -9.93757 10.1254 -3.91252 -11.1291 10.342 -5.23923 -12.3093 10.598 13.3956 3.96886 10.6619 12.2529 2.63088 10.4299 11.0953 1.30793 10.2336 9.92254 4.25693e-12 10.073 8.73481 -1.2929 9.9481 7.53206 -2.57078 9.85888 6.31427 -3.83364 9.80535 5.08147 -5.08147 9.7875 3.83364 -6.31427 9.80535 2.57078 -7.53206 9.85888 1.2929 -8.73481 9.9481 -1.48104e-13 -9.92254 10.073 -1.30793 -11.0953 10.2336 -2.63088 -12.2529 10.4299 -3.96886 -13.3956 10.6619 14.4556 2.6722 10.7439 13.3543 1.32671 10.5429 12.2342 4.2817e-12 10.3728 11.0953 -1.30793 10.2336 9.93757 -2.59708 10.1254 8.76111 -3.86744 10.048 7.56586 -5.11903 10.0016 6.35184 -6.35184 9.98617 5.11903 -7.56586 10.0016 3.86744 -8.76111 10.048 2.59708 -9.93757 10.1254 1.30793 -11.0953 10.2336 -2.36033e-13 -12.2342 10.3728 -1.32671 -13.3543 10.5429 -2.6722 -14.4556 10.7439 15.4893 1.34925 10.8443 14.4331 4.29869e-12 10.681 13.3543 -1.32671 10.5429 12.2529 -2.63088 10.4299 11.1291 -3.91252 10.342 9.98264 -5.17162 10.2792 8.81369 -6.40818 10.2416 7.6222 -7.6222 10.229 6.40818 -8.81369 10.2416 5.17162 -9.98264 10.2792 3.91252 -11.1291 10.342 2.63088 -12.2529 10.4299 1.32671 -13.3543 10.5429 -3.12195e-13 -14.4331 10.681 -1.34925 -15.4893 10.8443 16.4968 4.30944e-12 10.9628 15.4893 -1.34925 10.8443 14.4556 -2.6722 10.7439 13.3956 -3.96886 10.6619 12.3093 -5.23923 10.598 11.1967 -6.4833 10.5524 10.0578 -7.70108 10.5251 8.89257 -8.89257 10.516 7.70108 -10.0578 10.5251 6.4833 -11.1967 10.5524 5.23923 -12.3093 10.598 3.96886 -13.3956 10.6619 2.6722 -14.4556 10.7439 1.34925 -15.4893 10.8443 -3.75699e-13 -16.4968 10.9628 -4.31655e-13 14.5865 23.1374 -1.15327 13.656 23.2036 -2.2894 12.7084 23.2596 -3.4084 11.7436 23.3054 -4.51026 10.7616 23.3411 -5.59499 9.76258 23.3665 -6.66259 8.74638 23.3818 -7.71305 7.71305 23.3869 -8.74638 6.66259 23.3818 -9.76258 5.59499 23.3665 -10.7616 4.51026 23.3411 -11.7436 3.4084 23.3054 -12.7084 2.2894 23.2596 -13.656 1.15327 23.2036 -14.5865 6.08757e-12 23.1374 1.15327 13.656 23.2036 -1.96749e-13 12.6937 23.2826 -1.13858 11.7166 23.3495 -2.26247 10.7249 23.4042 -3.37168 9.71852 23.4468 -4.4662 8.69743 23.4772 -5.54604 7.66165 23.4955 -6.61119 6.61119 23.5015 -7.66165 5.54604 23.4955 -8.69743 4.4662 23.4772 -9.71852 3.37168 23.4468 -10.7249 2.26247 23.4042 -11.7166 1.13858 23.3495 -12.6937 5.70262e-12 23.2826 -13.656 -1.15327 23.2036 2.2894 12.7084 23.2596 1.13858 11.7166 23.3495 9.1344e-14 10.7127 23.4256 -1.12634 9.69649 23.4879 -2.24045 8.66806 23.5363 -3.34231 7.62738 23.5709 -4.43194 6.57447 23.5916 -5.50932 5.50932 23.5985 -6.57447 4.43194 23.5916 -7.62738 3.34231 23.5709 -8.66806 2.24045 23.5363 -9.69649 1.12634 23.4879 -10.7127 5.37925e-12 23.4256 -11.7166 -1.13858 23.3495 -12.7084 -2.2894 23.2596 3.4084 11.7436 23.3054 2.26247 10.7249 23.4042 1.12634 9.69649 23.4879 4.30373e-13 8.65827 23.5563 -1.11655 7.61025 23.6095 -2.22331 6.55244 23.6475 -3.32028 5.48485 23.6703 -4.40746 4.40746 23.6779 -5.48485 3.32028 23.6703 -6.55244 2.22331 23.6475 -7.61025 1.11655 23.6095 -8.65827 5.10871e-12 23.5563 -9.69649 -1.12634 23.4879 -10.7249 -2.26247 23.4042 -11.7436 -3.4084 23.3054 4.51026 10.7616 23.3411 3.37168 9.71852 23.4468 2.24045 8.66806 23.5363 1.11655 7.61025 23.6095 8.09649e-13 6.5451 23.6664 -1.10921 5.47261 23.7071 -2.21107 4.39277 23.7315 -3.30559 3.30559 23.7396 -4.39277 2.21107 23.7315 -5.47261 1.10921 23.7071 -6.5451 4.88813e-12 23.6664 -7.61025 -1.11655 23.6095 -8.66806 -2.24045 23.5363 -9.71852 -3.37168 23.4468 -10.7616 -4.51026 23.3411 5.59499 9.76258 23.3665 4.4662 8.69743 23.4772 3.34231 7.62738 23.5709 2.22331 6.55244 23.6475 1.10921 5.47261 23.7071 1.22874e-12 4.38788 23.7496 -1.10431 3.29825 23.7752 -2.20373 2.20373 23.7837 -3.29825 1.10431 23.7752 -4.38788 4.71399e-12 23.7496 -5.47261 -1.10921 23.7071 -6.55244 -2.22331 23.6475 -7.62738 -3.34231 23.5709 -8.69743 -4.4662 23.4772 -9.76258 -5.59499 23.3665 6.66259 8.74638 23.3818 5.54604 7.66165 23.4955 4.43194 6.57447 23.5916 3.32028 5.48485 23.6703 2.21107 4.39277 23.7315 1.10431 3.29825 23.7752 1.67797e-12 2.20128 23.8014 -1.10186 1.10186 23.8101 -2.20128 4.58919e-12 23.8014 -3.29825 -1.10431 23.7752 -4.39277 -2.21107 23.7315 -5.48485 -3.32028 23.6703 -6.57447 -4.43194 23.5916 -7.66165 -5.54604 23.4955 -8.74638 -6.66259 23.3818 7.71305 7.71305 23.3869 6.61119 6.61119 23.5015 5.50932 5.50932 23.5985 4.40746 4.40746 23.6779 3.30559 3.30559 23.7396 2.20373 2.20373 23.7837 1.10186 1.10186 23.8101 2.1515e-12 4.49908e-12 23.8189 -1.10186 -1.10186 23.8101 -2.20373 -2.20373 23.7837 -3.30559 -3.30559 23.7396 -4.40746 -4.40746 23.6779 -5.50932 -5.50932 23.5985 -6.61119 -6.61119 23.5015 -7.71305 -7.71305 23.3869 8.74638 6.66259 23.3818 7.66165 5.54604 23.4955 6.57447 4.43194 23.5916 5.48485 3.32028 23.6703 4.39277 2.21107 23.7315 3.29825 1.10431 23.7752 2.20128 4.69891e-12 23.8014 1.10186 -1.10186 23.8101 1.67604e-12 -2.20128 23.8014 -1.10431 -3.29825 23.7752 -2.21107 -4.39277 23.7315 -3.32028 -5.48485 23.6703 -4.43194 -6.57447 23.5916 -5.54604 -7.66165 23.4955 -6.66259 -8.74638 23.3818 9.76258 5.59499 23.3665 8.69743 4.4662 23.4772 7.62738 3.34231 23.5709 6.55244 2.22331 23.6475 5.47261 1.10921 23.7071 4.38788 5.1873e-12 23.7496 3.29825 -1.10431 23.7752 2.20373 -2.20373 23.7837 1.10431 -3.29825 23.7752 1.47557e-12 -4.38788 23.7496 -1.10921 -5.47261 23.7071 -2.22331 -6.55244 23.6475 -3.34231 -7.62738 23.5709 -4.4662 -8.69743 23.4772 -5.59499 -9.76258 23.3665 10.7616 4.51026 23.3411 9.71852 3.37168 23.4468 8.66806 2.24045 23.5363 7.61025 1.11655 23.6095 6.5451 5.95968e-12 23.6664 5.47261 -1.10921 23.7071 4.39277 -2.21107 23.7315 3.30559 -3.30559 23.7396 2.21107 -4.39277 23.7315 1.10921 -5.47261 23.7071 1.5381e-12 -6.5451 23.6664 -1.11655 -7.61025 23.6095 -2.24045 -8.66806 23.5363 -3.37168 -9.71852 23.4468 -4.51026 -10.7616 23.3411 11.7436 3.4084 23.3054 10.7249 2.26247 23.4042 9.69649 1.12634 23.4879 8.65827 6.99713e-12 23.5563 7.61025 -1.11655 23.6095 6.55244 -2.22331 23.6475 5.48485 -3.32028 23.6703 4.40746 -4.40746 23.6779 3.32028 -5.48485 23.6703 2.22331 -6.55244 23.6475 1.11655 -7.61025 23.6095 1.8574e-12 -8.65827 23.5563 -1.12634 -9.69649 23.4879 -2.26247 -10.7249 23.4042 -3.4084 -11.7436 23.3054 12.7084 2.2894 23.2596 11.7166 1.13858 23.3495 10.7127 8.29889e-12 23.4256 9.69649 -1.12634 23.4879 8.66806 -2.24045 23.5363 7.62738 -3.34231 23.5709 6.57447 -4.43194 23.5916 5.50932 -5.50932 23.5985 4.43194 -6.57447 23.5916 3.34231 -7.62738 23.5709 2.24045 -8.66806 23.5363 1.12634 -9.69649 23.4879 2.41629e-12 -10.7127 23.4256 -1.13858 -11.7166 23.3495 -2.2894 -12.7084 23.2596 13.656 1.15327 23.2036 12.6937 9.83814e-12 23.2826 11.7166 -1.13858 23.3495 10.7249 -2.26247 23.4042 9.71852 -3.37168 23.4468 8.69743 -4.4662 23.4772 7.66165 -5.54604 23.4955 6.61119 -6.61119 23.5015 5.54604 -7.66165 23.4955 4.4662 -8.69743 23.4772 3.37168 -9.71852 23.4468 2.26247 -10.7249 23.4042 1.13858 -11.7166 23.3495 3.21076e-12 -12.6937 23.2826 -1.15327 -13.656 23.2036 14.5865 1.16138e-11 23.1374 13.656 -1.15327 23.2036 12.7084 -2.2894 23.2596 11.7436 -3.4084 23.3054 10.7616 -4.51026 23.3411 9.76258 -5.59499 23.3665 8.74638 -6.66259 23.3818 7.71305 -7.71305 23.3869 6.66259 -8.74638 23.3818 5.59499 -9.76258 23.3665 4.51026 -10.7616 23.3411 3.4084 -11.7436 23.3054 2.2894 -12.7084 23.2596 1.15327 -13.656 23.2036 4.22773e-12 -14.5865 23.1374 8.47183e-13 13.6778 27.8122 -1.08568 12.8095 27.9024 -2.15464 11.9245 27.9786 -3.20687 11.0227 28.0411 -4.24239 10.1043 28.0896 -5.26118 9.1691 28.1243 -6.26324 8.21721 28.1451 -7.24859 7.24859 28.152 -8.21721 6.26324 28.1451 -9.1691 5.26118 28.1243 -10.1043 4.24239 28.0896 -11.0227 3.20687 28.0411 -11.9245 2.15464 27.9786 -12.8095 1.08568 27.9024 -13.6778 5.26923e-12 27.8122 1.08568 12.8095 27.9024 7.92723e-13 11.9101 27.9924 -1.07135 10.9965 28.0686 -2.12836 10.0684 28.1309 -3.17104 9.1261 28.1794 -4.19938 8.16943 28.214 -5.2134 7.19842 28.2348 -6.21307 6.21307 28.2417 -7.19842 5.2134 28.2348 -8.16943 4.19938 28.214 -9.1261 3.17104 28.1794 -10.0684 2.12836 28.1309 -10.9965 1.07135 28.0686 -11.9101 5.05405e-12 27.9924 -12.8095 -1.08568 27.9024 2.15464 11.9245 27.9786 1.07135 10.9965 28.0686 7.96366e-13 10.0565 28.1446 -1.0594 9.1046 28.2069 -2.10686 8.14076 28.2553 -3.14237 7.16497 28.2899 -4.16594 6.17724 28.3106 -5.17756 5.17756 28.3176 -6.17724 4.16594 28.3106 -7.16497 3.14237 28.2899 -8.14076 2.10686 28.2553 -9.1046 1.0594 28.2069 -10.0565 4.85685e-12 28.1446 -10.9965 -1.07135 28.0686 -11.9245 -2.15464 27.9786 3.20687 11.0227 28.0411 2.12836 10.0684 28.1309 1.0594 9.1046 28.2069 8.49124e-13 8.1312 28.2691 -1.04985 7.14825 28.3174 -2.09014 6.15574 28.352 -3.12087 5.15367 28.3727 -4.14205 4.14205 28.3796 -5.15367 3.12087 28.3727 -6.15574 2.09014 28.352 -7.14825 1.04985 28.3174 -8.1312 4.66752e-12 28.2691 -9.1046 -1.0594 28.2069 -10.0684 -2.12836 28.1309 -11.0227 -3.20687 28.0411 4.24239 10.1043 28.0896 3.17104 9.1261 28.1794 2.10686 8.14076 28.2553 1.04985 7.14825 28.3174 9.51591e-13 6.14857 28.3658 -1.04268 5.14173 28.4003 -2.07819 4.12771 28.421 -3.10654 3.10654 28.4279 -4.12771 2.07819 28.421 -5.14173 1.04268 28.4003 -6.14857 4.48963e-12 28.3658 -7.14825 -1.04985 28.3174 -8.14076 -2.10686 28.2553 -9.1261 -3.17104 28.1794 -10.1043 -4.24239 28.0896 5.26118 9.1691 28.1243 4.19938 8.16943 28.214 3.14237 7.16497 28.2899 2.09014 6.15574 28.352 1.04268 5.14173 28.4003 1.09617e-12 4.12294 28.4348 -1.0379 3.09937 28.4555 -2.07102 2.07102 28.4624 -3.09937 1.0379 28.4555 -4.12294 4.31593e-12 28.4348 -5.14173 -1.04268 28.4003 -6.15574 -2.09014 28.352 -7.16497 -3.14237 28.2899 -8.16943 -4.19938 28.214 -9.1691 -5.26118 28.1243 6.26324 8.21721 28.1451 5.2134 7.19842 28.2348 4.16594 6.17724 28.3106 3.12087 5.15367 28.3727 2.07819 4.12771 28.421 1.0379 3.09937 28.4555 1.27856e-12 2.06864 28.4762 -1.03551 1.03551 28.4831 -2.06864 4.14735e-12 28.4762 -3.09937 -1.0379 28.4555 -4.12771 -2.07819 28.421 -5.15367 -3.12087 28.3727 -6.17724 -4.16594 28.3106 -7.19842 -5.2134 28.2348 -8.21721 -6.26324 28.1451 7.24859 7.24859 28.152 6.21307 6.21307 28.2417 5.17756 5.17756 28.3176 4.14205 4.14205 28.3796 3.10654 3.10654 28.4279 2.07102 2.07102 28.4624 1.03551 1.03551 28.4831 1.49636e-12 3.97467e-12 28.49 -1.03551 -1.03551 28.4831 -2.07102 -2.07102 28.4624 -3.10654 -3.10654 28.4279 -4.14205 -4.14205 28.3796 -5.17756 -5.17756 28.3176 -6.21307 -6.21307 28.2417 -7.24859 -7.24859 28.152 8.21721 6.26324 28.1451 7.19842 5.2134 28.2348 6.17724 4.16594 28.3106 5.15367 3.12087 28.3727 4.12771 2.07819 28.421 3.09937 1.0379 28.4555 2.06864 4.17876e-12 28.4762 1.03551 -1.03551 28.4831 1.2327e-12 -2.06864 28.4762 -1.0379 -3.09937 28.4555 -2.07819 -4.12771 28.421 -3.12087 -5.15367 28.3727 -4.16594 -6.17724 28.3106 -5.2134 -7.19842 28.2348 -6.26324 -8.21721 28.1451 9.1691 5.26118 28.1243 8.16943 4.19938 28.214 7.16497 3.14237 28.2899 6.15574 2.09014 28.352 5.14173 1.04268 28.4003 4.12294 4.42454e-12 28.4348 3.09937 -1.0379 28.4555 2.07102 -2.07102 28.4624 1.0379 -3.09937 28.4555 1.04859e-12 -4.12294 28.4348 -1.04268 -5.14173 28.4003 -2.09014 -6.15574 28.352 -3.14237 -7.16497 28.2899 -4.19938 -8.16943 28.214 -5.26118 -9.1691 28.1243 10.1043 4.24239 28.0896 9.1261 3.17104 28.1794 8.14076 2.10686 28.2553 7.14825 1.04985 28.3174 6.14857 4.71209e-12 28.3658 5.14173 -1.04268 28.4003 4.12771 -2.07819 28.421 3.10654 -3.10654 28.4279 2.07819 -4.12771 28.421 1.04268 -5.14173 28.4003 9.37107e-13 -6.14857 28.3658 -1.04985 -7.14825 28.3174 -2.10686 -8.14076 28.2553 -3.17104 -9.1261 28.1794 -4.24239 -10.1043 28.0896 11.0227 3.20687 28.0411 10.0684 2.12836 28.1309 9.1046 1.0594 28.2069 8.1312 5.03463e-12 28.2691 7.14825 -1.04985 28.3174 6.15574 -2.09014 28.352 5.15367 -3.12087 28.3727 4.14205 -4.14205 28.3796 3.12087 -5.15367 28.3727 2.09014 -6.15574 28.352 1.04985 -7.14825 28.3174 8.9722e-13 -8.1312 28.2691 -1.0594 -9.1046 28.2069 -2.12836 -10.0684 28.1309 -3.20687 -11.0227 28.0411 11.9245 2.15464 27.9786 10.9965 1.07135 28.0686 10.0565 5.38723e-12 28.1446 9.1046 -1.0594 28.2069 8.14076 -2.10686 28.2553 7.16497 -3.14237 28.2899 6.17724 -4.16594 28.3106 5.17756 -5.17756 28.3176 4.16594 -6.17724 28.3106 3.14237 -7.16497 28.2899 2.10686 -8.14076 28.2553 1.0594 -9.1046 28.2069 9.17669e-13 -10.0565 28.1446 -1.07135 -10.9965 28.0686 -2.15464 -11.9245 27.9786 12.8095 1.08568 27.9024 11.9101 5.76196e-12 27.9924 10.9965 -1.07135 28.0686 10.0684 -2.12836 28.1309 9.1261 -3.17104 28.1794 8.16943 -4.19938 28.214 7.19842 -5.2134 28.2348 6.21307 -6.21307 28.2417 5.2134 -7.19842 28.2348 4.19938 -8.16943 28.214 3.17104 -9.1261 28.1794 2.12836 -10.0684 28.1309 1.07135 -10.9965 28.0686 9.95683e-13 -11.9101 27.9924 -1.08568 -12.8095 27.9024 13.6778 6.16078e-12 27.8122 12.8095 -1.08568 27.9024 11.9245 -2.15464 27.9786 11.0227 -3.20687 28.0411 10.1043 -4.24239 28.0896 9.1691 -5.26118 28.1243 8.21721 -6.26324 28.1451 7.24859 -7.24859 28.152 6.26324 -8.21721 28.1451 5.26118 -9.1691 28.1243 4.24239 -10.1043 28.0896 3.20687 -11.0227 28.0411 2.15464 -11.9245 27.9786 1.08568 -12.8095 27.9024 1.13115e-12 -13.6778 27.8122 1.88299e-12 12.7862 31.574 -1.01712 11.9767 31.7266 -2.01826 11.1513 31.8557 -3.00343 10.3099 31.9613 -3.97264 9.45245 32.0435 -4.92587 8.57908 32.1022 -5.86313 7.68973 32.1374 -6.78442 6.78442 32.1491 -7.68973 5.86313 32.1374 -8.57908 4.92587 32.1022 -9.45245 3.97264 32.0435 -10.3099 3.00343 31.9613 -11.1513 2.01826 31.8557 -11.9767 1.01712 31.7266 -12.7862 4.54292e-12 31.574 1.01712 11.9767 31.7266 1.60816e-12 11.1376 31.8791 -1.00343 10.2848 32.0082 -1.99316 9.41823 32.1138 -2.96921 8.53801 32.196 -3.93157 7.6441 32.2546 -4.88024 6.7365 32.2898 -5.81521 5.81521 32.3016 -6.7365 4.88024 32.2898 -7.6441 3.93157 32.2546 -8.53801 2.96921 32.196 -9.41823 1.99316 32.1138 -10.2848 1.00343 32.0082 -11.1376 4.4751e-12 31.8791 -11.9767 -1.01712 31.7266 2.01826 11.1513 31.8557 1.00343 10.2848 32.0082 1.3883e-12 9.40682 32.1373 -0.992018 8.51747 32.2429 -1.97263 7.61672 32.325 -2.94183 6.70456 32.3836 -3.89962 5.78099 32.4188 -4.84601 4.84601 32.4306 -5.78099 3.89962 32.4188 -6.70456 2.94183 32.3836 -7.61672 1.97263 32.325 -8.51747 0.992018 32.2429 -9.40682 4.38815e-12 32.1373 -10.2848 -1.00343 32.0082 -11.1513 -2.01826 31.8557 3.00343 10.3099 31.9613 1.99316 9.41823 32.1138 0.992018 8.51747 32.2429 1.2186e-12 7.60759 32.3484 -0.982892 6.68859 32.4305 -1.95666 5.76045 32.4892 -2.9213 4.82319 32.5244 -3.87681 3.87681 32.5361 -4.82319 2.9213 32.5244 -5.76045 1.95666 32.4892 -6.68859 0.982892 32.4305 -7.60759 4.28104e-12 32.3484 -8.51747 -0.992018 32.2429 -9.41823 -1.99316 32.1138 -10.3099 -3.00343 31.9613 3.97264 9.45245 32.0435 2.96921 8.53801 32.196 1.97263 7.61672 32.325 0.982892 6.68859 32.4305 1.10019e-12 5.75361 32.5127 -0.976047 4.81179 32.5713 -1.94525 3.86312 32.6065 -2.90761 2.90761 32.6182 -3.86312 1.94525 32.6065 -4.81179 0.976047 32.5713 -5.75361 4.15023e-12 32.5127 -6.68859 -0.982892 32.4305 -7.61672 -1.97263 32.325 -8.53801 -2.96921 32.196 -9.45245 -3.97264 32.0435 4.92587 8.57908 32.1022 3.93157 7.6441 32.2546 2.94183 6.70456 32.3836 1.95666 5.76045 32.4892 0.976047 4.81179 32.5713 1.03096e-12 3.85856 32.6299 -0.971484 2.90076 32.6651 -1.9384 1.9384 32.6769 -2.90076 0.971484 32.6651 -3.85856 3.99639e-12 32.6299 -4.81179 -0.976047 32.5713 -5.76045 -1.95666 32.4892 -6.70456 -2.94183 32.3836 -7.6441 -3.93157 32.2546 -8.57908 -4.92587 32.1022 5.86313 7.68973 32.1374 4.88024 6.7365 32.2898 3.89962 5.78099 32.4188 2.9213 4.82319 32.5244 1.94525 3.86312 32.6065 0.971484 2.90076 32.6651 1.00941e-12 1.93612 32.7003 -0.969202 0.969202 32.712 -1.93612 3.81689e-12 32.7003 -2.90076 -0.971484 32.6651 -3.86312 -1.94525 32.6065 -4.82319 -2.9213 32.5244 -5.78099 -3.89962 32.4188 -6.7365 -4.88024 32.2898 -7.68973 -5.86313 32.1374 6.78442 6.78442 32.1491 5.81521 5.81521 32.3016 4.84601 4.84601 32.4306 3.87681 3.87681 32.5361 2.90761 2.90761 32.6182 1.9384 1.9384 32.6769 0.969202 0.969202 32.712 1.03321e-12 3.60458e-12 32.7238 -0.969202 -0.969202 32.712 -1.9384 -1.9384 32.6769 -2.90761 -2.90761 32.6182 -3.87681 -3.87681 32.5361 -4.84601 -4.84601 32.4306 -5.81521 -5.81521 32.3016 -6.78442 -6.78442 32.1491 7.68973 5.86313 32.1374 6.7365 4.88024 32.2898 5.78099 3.89962 32.4188 4.82319 2.9213 32.5244 3.86312 1.94525 32.6065 2.90076 0.971484 32.6651 1.93612 3.81052e-12 32.7003 0.969202 -0.969202 32.712 9.40925e-13 -1.93612 32.7003 -0.971484 -2.90076 32.6651 -1.94525 -3.86312 32.6065 -2.9213 -4.82319 32.5244 -3.89962 -5.78099 32.4188 -4.88024 -6.7365 32.2898 -5.86313 -7.68973 32.1374 8.57908 4.92587 32.1022 7.6441 3.93157 32.2546 6.70456 2.94183 32.3836 5.76045 1.95666 32.4892 4.81179 0.976047 32.5713 3.85856 3.87557e-12 32.6299 2.90076 -0.971484 32.6651 1.9384 -1.9384 32.6769 0.971484 -2.90076 32.6651 7.8523e-13 -3.85856 32.6299 -0.976047 -4.81179 32.5713 -1.95666 -5.76045 32.4892 -2.94183 -6.70456 32.3836 -3.93157 -7.6441 32.2546 -4.92587 -8.57908 32.1022 9.45245 3.97264 32.0435 8.53801 2.96921 32.196 7.61672 1.97263 32.325 6.68859 0.982892 32.4305 5.75361 3.80539e-12 32.5127 4.81179 -0.976047 32.5713 3.86312 -1.94525 32.6065 2.90761 -2.90761 32.6182 1.94525 -3.86312 32.6065 0.976047 -4.81179 32.5713 5.6501e-13 -5.75361 32.5127 -0.982892 -6.68859 32.4305 -1.97263 -7.61672 32.325 -2.96921 -8.53801 32.196 -3.97264 -9.45245 32.0435 10.3099 3.00343 31.9613 9.41823 1.99316 32.1138 8.51747 0.992018 32.2429 7.60759 3.59896e-12 32.3484 6.68859 -0.982892 32.4305 5.76045 -1.95666 32.4892 4.82319 -2.9213 32.5244 3.87681 -3.87681 32.5361 2.9213 -4.82319 32.5244 1.95666 -5.76045 32.4892 0.982892 -6.68859 32.4305 2.80373e-13 -7.60759 32.3484 -0.992018 -8.51747 32.2429 -1.99316 -9.41823 32.1138 -3.00343 -10.3099 31.9613 11.1513 2.01826 31.8557 10.2848 1.00343 32.0082 9.40682 3.2571e-12 32.1373 8.51747 -0.992018 32.2429 7.61672 -1.97263 32.325 6.70456 -2.94183 32.3836 5.78099 -3.89962 32.4188 4.84601 -4.84601 32.4306 3.89962 -5.78099 32.4188 2.94183 -6.70456 32.3836 1.97263 -7.61672 32.325 0.992018 -8.51747 32.2429 -7.02494e-14 -9.40682 32.1373 -1.00343 -10.2848 32.0082 -2.01826 -11.1513 31.8557 11.9767 1.01712 31.7266 11.1376 2.77978e-12 31.8791 10.2848 -1.00343 32.0082 9.41823 -1.99316 32.1138 8.53801 -2.96921 32.196 7.6441 -3.93157 32.2546 6.7365 -4.88024 32.2898 5.81521 -5.81521 32.3016 4.88024 -6.7365 32.2898 3.93157 -7.6441 32.2546 2.96921 -8.53801 32.196 1.99316 -9.41823 32.1138 1.00343 -10.2848 32.0082 -4.86305e-13 -11.1376 31.8791 -1.01712 -11.9767 31.7266 12.7862 2.16849e-12 31.574 11.9767 -1.01712 31.7266 11.1513 -2.01826 31.8557 10.3099 -3.00343 31.9613 9.45245 -3.97264 32.0435 8.57908 -4.92587 32.1022 7.68973 -5.86313 32.1374 6.78442 -6.78442 32.1491 5.86313 -7.68973 32.1374 4.92587 -8.57908 32.1022 3.97264 -9.45245 32.0435 3.00343 -10.3099 31.9613 2.01826 -11.1513 31.8557 1.01712 -11.9767 31.7266 -9.68559e-13 -12.7862 31.574 2.54974e-12 11.8891 35.3358 -0.946664 11.1373 35.5508 -1.87834 10.3706 35.7328 -2.79502 9.5888 35.8816 -3.69671 8.79205 35.9974 -4.58341 7.9803 36.0801 -5.45512 7.15356 36.1297 -6.31184 6.31184 36.1462 -7.15356 5.45512 36.1297 -7.9803 4.58341 36.0801 -8.79205 3.69671 35.9974 -9.5888 2.79502 35.8816 -10.3706 1.87834 35.7328 -11.1373 0.946664 35.5508 -11.8891 3.95384e-12 35.3358 0.946664 11.1373 35.5508 2.1516e-12 10.3577 35.7659 -0.933814 9.56524 35.9479 -1.85478 8.75992 36.0968 -2.76289 7.94175 36.2126 -3.65816 7.11073 36.2953 -4.54058 6.26686 36.3449 -5.41015 5.41015 36.3615 -6.26686 4.54058 36.3449 -7.11073 3.65816 36.2953 -7.94175 2.76289 36.2126 -8.75992 1.85478 36.0968 -9.56524 0.933814 35.9479 -10.3577 4.0006e-12 35.7659 -11.1373 -0.946664 35.5508 1.87834 10.3706 35.7328 0.933814 9.56524 35.9479 1.80188e-12 8.74922 36.1299 -0.923106 7.92248 36.2788 -1.83551 7.08503 36.3947 -2.7372 6.23688 36.4774 -3.62818 5.37802 36.527 -4.50845 4.50845 36.5436 -5.37802 3.62818 36.527 -6.23688 2.7372 36.4774 -7.08503 1.83551 36.3947 -7.92248 0.923106 36.2788 -8.74922 4.01213e-12 36.1299 -9.56524 -0.933814 35.9479 -10.3706 -1.87834 35.7328 2.79502 9.5888 35.8816 1.85478 8.75992 36.0968 0.923106 7.92248 3