<?xml version="1.0"?> 
<VTKFile type="StructuredGrid" version="0.1"> 
<StructuredGrid WholeExtent="0 29 0 29 0 29"> 
<Piece Extent="0 29 0 29 0 29"> 
<PointData>
<DataArray type="Float32" Name="efield" format="ascii" NumberOfComponents="3"> 
-7.55245 0.854506 7.84509 -7.69581 0.718469 7.37476 -7.83918 0.588843 6.97106 -7.98254 0.464064 6.63254 -8.1259 0.342887 6.35806 -8.26927 0.224315 6.14685 -8.41263 0.107533 5.99844 -8.556 -0.00812435 5.91272 -8.69936 -0.123212 5.88991 -8.84272 -0.238191 5.93061 -8.98609 -0.353453 6.03576 -9.12945 -0.469328 6.20673 -9.27281 -0.586098 6.4453 -9.41618 -0.704007 6.75374 -9.55954 -0.823263 7.1348 -10.1439 -0.797282 7.4778 -11.1693 -0.634724 7.55496 -12.1947 -0.485969 7.39032 -13.22 -0.351831 6.96546 -14.2454 -0.233027 6.25892 -15.2708 -0.130194 5.24572 -16.2962 -0.0438974 3.89673 -17.3216 0.0253562 2.17782 -18.3469 0.0771136 0.0489173 -19.3723 0.110968 -2.53728 -20.3977 0.126551 -5.63691 -21.4231 0.123533 -9.31697 -22.4484 0.101613 -13.658 -23.4738 0.0605176 -18.7576 -24.4992 3.37027e-15 -24.7349 -7.29149 1.05547 8.01589 -7.4342 0.951796 7.52105 -7.57629 0.851753 7.09635 -7.71784 0.754336 6.74018 -7.85889 0.658733 6.45126 -7.99949 0.564279 6.22873 -8.13966 0.47043 6.07203 -8.27944 0.376732 5.98101 -8.41885 0.282805 5.95588 -8.5579 0.188331 5.99723 -8.69663 0.0930372 6.10608 -8.83503 -0.00330668 6.28385 -8.97313 -0.100899 6.53245 -9.11094 -0.199911 6.85431 -9.24846 -0.300491 7.25241 -9.83839 -0.235938 7.61362 -10.8795 -0.016788 7.70713 -11.9187 0.186097 7.55877 -12.9561 0.372136 7.15021 -13.9916 0.540819 6.46002 -15.0254 0.691695 5.46318 -16.0573 0.824366 4.13033 -17.0876 0.938482 2.42696 -18.1161 1.03373 0.312347 -19.143 1.10983 -2.26182 -20.1681 1.16655 -5.35316 -21.1916 1.20365 -9.03084 -22.2135 1.22095 -13.3785 -23.2337 1.21828 -18.4982 -24.2523 1.19548 -24.5154 -7.04926 1.27517 8.1745 -7.18932 1.19798 7.65671 -7.32841 1.12257 7.21235 -7.46662 1.04827 6.83964 -7.604 0.974555 6.53718 -7.74063 0.900975 6.30397 -7.87653 0.827164 6.13941 -8.01176 0.752813 6.04327 -8.14635 0.677662 6.01574 -8.28032 0.601492 6.05743 -8.41369 0.524117 6.16938 -8.5465 0.445377 6.35308 -8.67875 0.365134 6.61056 -8.81046 0.283272 6.94436 -8.94165 0.199687 7.35768 -9.53311 0.301018 7.73547 -10.5825 0.57528 7.84435 -11.6282 0.831393 7.71155 -12.6704 1.06896 7.31888 -13.709 1.28764 6.64505 -14.7442 1.48712 5.66502 -15.776 1.66716 4.34933 -16.8043 1.82753 2.66321 -17.8294 1.96803 0.565417 -18.8511 2.0885 -1.99318 -19.8695 2.18879 -5.07146 -20.8847 2.26879 -8.74052 -21.8967 2.32839 -13.0868 -22.9054 2.36751 -18.2164 -23.9109 2.38607 -24.2609 -6.81968 1.50752 8.3209 -6.95586 1.45245 7.78179 -7.09085 1.3979 7.31915 -7.22474 1.34343 6.93105 -7.35758 1.28867 6.61596 -7.48944 1.23334 6.37278 -7.62037 1.17718 6.20081 -7.7504 1.11999 6.09978 -7.87958 1.0616 6.06985 -8.00793 1.00184 6.11162 -8.13547 0.940606 6.22615 -8.26224 0.877778 6.41501 -8.38825 0.813267 6.68029 -8.51351 0.746994 7.02468 -8.63805 0.678893 7.45154 -9.22767 0.81525 7.84434 -10.2789 1.14299 7.96747 -11.3249 1.45116 7.84931 -12.3658 1.73952 7.47187 -13.4015 2.00787 6.81399 -14.4322 2.25601 5.8507 -15.4579 2.48382 4.55253 -16.4786 2.69116 2.88452 -17.4945 2.87794 0.805056 -18.5054 3.04409 -1.73567 -19.5116 3.18955 -4.79763 -20.5129 3.31429 -8.45357 -21.5095 3.41828 -12.7925 -22.5013 3.5015 -17.9242 -23.4884 3.56395 -23.9858 -6.59845 1.74822 8.4551 -6.72999 1.71194 7.89631 -6.86018 1.67531 7.41682 -6.98912 1.63804 7.01451 -7.11685 1.59988 6.68775 -7.24343 1.56064 6.43531 -7.36891 1.52016 6.25644 -7.49332 1.47829 6.15079 -7.61671 1.43492 6.1185 -7.73909 1.38995 6.16015 -7.86049 1.3433 6.27682 -7.98093 1.2949 6.47013 -8.10044 1.24469 6.74225 -8.21903 1.19262 7.09598 -8.33672 1.13865 7.53483 -8.92168 1.30835 7.94109 -9.96943 1.68782 8.07731 -11.0104 2.04671 7.97274 -12.0447 2.38488 7.60964 -13.0724 2.70224 6.967 -14.0935 2.9987 6.01998 -15.1081 3.27421 4.73914 -16.1162 3.52873 3.08943 -17.118 3.76226 1.02894 -18.1134 3.97478 -1.49266 -19.1024 4.16632 -4.53626 -20.0852 4.3369 -8.17607 -21.0617 4.48657 -12.5033 -22.0321 4.61538 -17.6313 -22.9962 4.72337 -23.7022 -6.38244 1.99413 8.57711 -6.50886 1.97405 8.00033 -6.63383 1.95301 7.50541 -6.75742 1.93082 7.09011 -6.87967 1.90733 6.75265 -7.00064 1.8824 6.49172 -7.12037 1.85592 6.30647 -7.23889 1.82781 6.19652 -7.35623 1.79799 6.16195 -7.47242 1.76641 6.20333 -7.58747 1.733 6.32177 -7.70143 1.69772 6.5189 -7.81429 1.66055 6.79697 -7.92608 1.62146 7.15889 -8.03681 1.58041 7.60828 -8.6147 1.78182 8.02654 -9.65432 2.21124 8.17463 -10.6857 2.61939 8.08252 -11.709 3.00621 7.7327 -12.7241 3.37169 7.10436 -13.7313 3.71582 6.17282 -14.7305 4.03863 4.90869 -15.7218 4.34016 3.2769 -16.7053 4.62044 1.23534 -17.681 4.87954 -1.26674 -18.649 5.11753 -4.291 -19.6093 5.33451 -7.91291 -20.5619 5.53055 -12.2257 -21.5069 5.70576 -17.3457 -22.4442 5.86025 -23.4199 -6.16932 2.24294 8.68691 -6.29034 2.237 8.09385 -6.40982 2.22967 7.58499 -6.52781 2.22085 7.15793 -6.64436 2.21041 6.81078 -6.75951 2.1983 6.54214 -6.8733 2.18442 6.35108 -6.98575 2.16874 6.23716 -7.0969 2.15121 6.20043 -7.20676 2.13179 6.24145 -7.31536 2.11045 6.36133 -7.42272 2.08716 6.56172 -7.52886 2.06192 6.84494 -7.63378 2.03472 7.21397 -7.73751 2.00553 7.67256 -8.30631 2.23712 8.10141 -9.3338 2.7147 8.26013 -10.3517 3.17056 8.17929 -11.36 3.60474 7.84158 -12.3589 4.01728 7.22643 -13.3484 4.40824 6.30931 -14.3285 4.7777 5.06094 -15.2994 5.12574 3.44624 -16.2611 5.45247 1.42299 -17.2137 5.75799 -1.05989 -18.1571 6.04242 -4.0647 -19.0915 6.30589 -7.66799 -20.0169 6.54852 -11.9647 -20.9333 6.77047 -17.0741 -21.8408 6.97187 -23.1472 -5.95737 2.49292 8.78451 -6.07281 2.49945 8.17692 -6.18663 2.50431 7.6556 -6.29887 2.50742 7.21803 -6.40957 2.50872 6.86222 -6.51878 2.50817 6.58667 -6.6265 2.50571 6.39039 -6.73279 2.50133 6.27288 -6.83765 2.49499 6.23415 -6.94112 2.48668 6.27475 -7.04321 2.4764 6.39579 -7.14393 2.46412 6.59894 -7.24331 2.44984 6.88657 -7.34135 2.43357 7.26172 -7.43808 2.41531 7.72825 -7.99604 2.67563 8.16634 -9.00795 3.19956 8.33446 -10.0089 3.70158 8.26365 -10.999 4.18175 7.93683 -11.9783 4.64018 7.33362 -12.9469 5.07697 6.42966 -13.9048 5.49224 5.1958 -14.8522 5.88612 3.59701 -15.7891 6.25874 1.591 -16.7155 6.61025 -0.873596 -17.6316 6.94079 -3.85958 -18.5373 7.25054 -7.44441 -19.4327 7.53964 -11.7246 -20.3179 7.80827 -16.8217 -21.1929 8.05661 -22.8908 -5.74527 2.74274 8.86991 -5.85502 2.76039 8.24955 -5.96307 2.77618 7.71729 -6.06946 2.79006 7.27049 -6.17422 2.80198 6.90706 -6.27739 2.81193 6.62543 -6.379 2.81989 6.42453 -6.47905 2.82584 6.30382 -6.57759 2.82977 6.26329 -6.67462 2.83168 6.30345 -6.77016 2.83157 6.4254 -6.86424 2.82944 6.63086 -6.95686 2.82529 6.92221 -7.04803 2.81913 7.30257 -7.13779 2.81098 7.77589 -7.68339 3.09867 8.22192 -8.67669 3.66719 8.39821 -9.65776 4.21377 8.33617 -10.6267 4.73854 8.01893 -11.5836 5.24161 7.42631 -12.5285 5.72313 6.53412 -13.4615 6.18325 5.31334 -14.3828 6.62213 3.72898 -15.2923 7.03992 1.73873 -16.1901 7.43679 -0.708968 -17.0763 7.81292 -3.67733 -17.9509 8.1685 -7.24461 -18.8141 8.50369 -11.5086 -19.6659 8.8187 -16.593 -20.5063 9.11371 -22.6562 -5.53199 2.99139 8.94312 -5.63597 3.01907 8.31177 -5.73818 3.04475 7.77009 -5.83865 3.06841 7.31535 -5.93742 3.09003 6.94537 -6.0345 3.10961 6.65849 -6.12993 3.12713 6.45361 -6.22372 3.1426 6.33012 -6.31589 3.15601 6.28799 -6.40647 3.16736 6.32771 -6.49546 3.17668 6.45039 -6.58289 3.18396 6.65775 -6.66876 3.18922 6.9522 -6.7531 3.19246 7.33691 -6.83592 3.19371 7.8159 -7.36784 3.50749 8.26863 -8.33986 4.11887 8.45189 -9.29843 4.70845 8.39736 -10.2437 5.27638 8.08837 -11.1757 5.82281 7.50492 -12.0945 6.3479 6.62298 -13.0003 6.85183 5.41365 -13.893 7.33476 3.84202 -14.7729 7.79687 1.86576 -15.64 8.23836 -0.566809 -16.4943 8.6594 -3.51926 -17.336 9.0602 -7.07048 -18.165 9.44094 -11.3194 -18.9815 9.80183 -16.3914 -19.7856 10.1431 -22.448 -5.31677 3.2381 9.00412 -5.41492 3.2749 8.36359 -5.51122 3.30962 7.81405 -5.60571 3.34226 7.35267 -5.69842 3.37281 6.9772 -5.78937 3.40126 6.68593 -5.87857 3.42764 6.4777 -5.96606 3.45193 6.35188 -6.05185 3.47414 6.30838 -6.13595 3.4943 6.3477 -6.21839 3.51241 6.47094 -6.29917 3.52848 6.67982 -6.37832 3.54252 6.97679 -6.45585 3.55457 7.36505 -6.53176 3.56462 7.84868 -7.0488 3.90329 8.30691 -7.99716 4.55583 8.49593 -8.93093 5.18685 8.44765 -9.85021 5.79652 8.14556 -10.7551 6.385 7.56981 -11.6457 6.95246 6.69652 -12.5222 7.4991 5.49689 -13.3846 8.02508 3.93611 -14.233 8.5306 1.97185 -15.0674 9.01586 -0.447696 -15.8881 9.48104 -3.38634 -16.6951 9.92634 -6.92348 -17.4884 10.352 -11.1589 -18.2682 10.7581 -16.2196 -19.0345 11.145 -22.2695 -5.09903 3.48229 9.05292 -5.19126 3.52747 8.40503 -5.28158 3.57053 7.84918 -5.37002 3.61147 7.38248 -5.45661 3.6503 7.00261 -5.54136 3.68702 6.70781 -5.6243 3.72165 6.49689 -5.70544 3.75419 6.36918 -5.78481 3.78465 6.32457 -5.86241 3.81306 6.36354 -5.93828 3.83942 6.48719 -6.01241 3.86376 6.69726 -6.08483 3.88609 6.9962 -6.15555 3.90642 7.38724 -6.22459 3.92478 7.87452 -6.72567 4.28721 8.33711 -7.64822 4.97925 8.53072 -8.55509 5.65017 8.48742 -9.44641 6.30015 8.19085 -10.3223 6.92936 7.6213 -11.1828 7.53798 6.75499 -12.0282 8.12619 5.56324 -12.8584 8.69418 4.01129 -13.6736 9.24215 2.05681 -14.4739 9.77028 -0.352031 -15.2595 10.2788 -3.27928 -16.0303 10.7678 -6.80472 -16.7866 11.2376 -11.0289 -17.5283 11.6883 -16.0799 -18.2557 12.1202 -22.1236 -4.87834 3.72352 9.08952 -4.96455 3.77647 8.4361 -5.04879 3.8273 7.87551 -5.13109 3.87599 7.4048 -5.21147 3.92257 7.02163 -5.28995 3.96705 6.72418 -5.36654 4.00944 6.51123 -5.44128 4.04975 6.38209 -5.51417 4.088 6.33664 -5.58523 4.12421 6.37534 -5.65447 4.15839 6.49928 -5.72193 4.19056 6.71021 -5.7876 4.22074 7.0106 -5.8515 4.24894 7.40371 -5.91366 4.2752 7.89369 -6.39777 4.66033 8.35952 -7.29255 5.39023 8.55655 -8.17063 6.09954 8.51698 -9.03214 6.78841 8.22456 -9.87722 7.45702 7.65967 -10.706 8.10556 6.79863 -11.5186 8.7342 5.61284 -12.3151 9.34313 4.06759 -13.0957 9.93254 2.12058 -13.8605 10.5026 -0.280087 -14.6096 11.0535 -3.19859 -15.3431 11.5855 -6.715 -16.0611 12.0987 -10.9304 -16.7638 12.5933 -15.9737 -17.4512 13.0695 -22.0125 -4.65438 3.96149 9.11392 -4.73443 4.02173 8.45681 -4.81247 4.07984 7.89305 -4.8885 4.13585 7.41968 -4.96256 4.18975 7.03429 -5.03465 4.24156 6.73508 -5.1048 4.29131 6.52077 -5.17303 4.339 6.39067 -5.23936 4.38466 6.34465 -5.30379 4.4283 6.38316 -5.36636 4.46994 6.50729 -5.42707 4.50959 6.71879 -5.48593 4.54728 7.02013 -5.54298 4.58303 7.4146 -5.59822 4.61684 7.90636 -6.06441 5.02366 8.37434 -6.92957 5.78982 8.57364 -7.77709 6.53599 8.53656 -8.60712 7.26233 8.24691 -9.41979 7.96902 7.68513 -10.2153 8.65623 6.82762 -10.9936 9.32413 5.64583 -11.7551 9.97291 4.10509 -12.4997 10.6027 2.16311 -13.2277 11.2138 -0.232039 -13.9392 11.8062 -3.14462 -14.6342 12.3803 -6.65489 -15.313 12.9361 -10.8643 -15.9757 13.4739 -15.9024 -16.6224 13.9938 -21.9376 -4.42697 4.196 9.12612 -4.50068 4.26314 8.46716 -4.57233 4.32817 7.90182 -4.64193 4.39111 7.42711 -4.7095 4.45198 7.04062 -4.77506 4.5108 6.74052 -4.83862 4.56759 6.52553 -4.90021 4.62235 6.39495 -4.95984 4.67511 6.34864 -5.01754 4.72589 6.38706 -5.0733 4.7747 6.51128 -5.12717 4.82157 6.72306 -5.17914 4.8665 7.02488 -5.22924 4.90952 7.42002 -5.27749 4.95065 7.91267 -5.72482 5.37819 8.38171 -6.55863 6.17899 8.58215 -7.37394 6.9605 8.54631 -8.1709 7.72288 8.25804 -8.94966 8.46629 7.69782 -9.71037 9.1909 6.84209 -10.4532 9.89688 5.6623 -11.1783 10.5844 4.12383 -11.8858 11.2536 2.18438 -12.5758 11.9046 -0.20799 -13.2486 12.5377 -3.11758 -13.9042 13.153 -6.62475 -14.5429 13.7506 -10.8311 -15.1647 14.3308 -15.8665 -15.7698 14.8937 -21.8999 -4.196 4.42697 9.12612 -4.26314 4.50068 8.46716 -4.32817 4.57233 7.90182 -4.39111 4.64193 7.42711 -4.45198 4.7095 7.04062 -4.5108 4.77506 6.74052 -4.56759 4.83862 6.52553 -4.62235 4.90021 6.39495 -4.67511 4.95984 6.34864 -4.72589 5.01754 6.38706 -4.7747 5.0733 6.51128 -4.82157 5.12717 6.72306 -4.8665 5.17914 7.02488 -4.90952 5.22924 7.42002 -4.95065 5.27749 7.91267 -5.37819 5.72482 8.38171 -6.17899 6.55863 8.58215 -6.9605 7.37394 8.54631 -7.72288 8.1709 8.25804 -8.46629 8.94966 7.69782 -9.1909 9.71037 6.84209 -9.89688 10.4532 5.6623 -10.5844 11.1783 4.12383 -11.2536 11.8858 2.18438 -11.9046 12.5758 -0.20799 -12.5377 13.2486 -3.11758 -13.153 13.9042 -6.62475 -13.7506 14.5429 -10.8311 -14.3308 15.1647 -15.8665 -14.8937 15.7698 -21.8999 -3.96149 4.65438 9.11392 -4.02173 4.73443 8.45681 -4.07984 4.81247 7.89305 -4.13585 4.8885 7.41968 -4.18975 4.96256 7.03429 -4.24156 5.03465 6.73508 -4.29131 5.1048 6.52077 -4.339 5.17303 6.39067 -4.38466 5.23936 6.34465 -4.4283 5.30379 6.38316 -4.46994 5.36636 6.50729 -4.50959 5.42707 6.71879 -4.54728 5.48593 7.02013 -4.58303 5.54298 7.4146 -4.61684 5.59822 7.90636 -5.02366 6.06441 8.37434 -5.78982 6.92957 8.57364 -6.53599 7.77709 8.53656 -7.26233 8.60712 8.24691 -7.96902 9.41979 7.68513 -8.65623 10.2153 6.82762 -9.32413 10.9936 5.64583 -9.97291 11.7551 4.10509 -10.6027 12.4997 2.16311 -11.2138 13.2277 -0.232039 -11.8062 13.9392 -3.14462 -12.3803 14.6342 -6.65489 -12.9361 15.313 -10.8643 -13.4739 15.9757 -15.9024 -13.9938 16.6224 -21.9376 -3.72352 4.87834 9.08952 -3.77647 4.96455 8.4361 -3.8273 5.04879 7.87551 -3.87599 5.13109 7.4048 -3.92257 5.21147 7.02163 -3.96705 5.28995 6.72418 -4.00944 5.36654 6.51123 -4.04975 5.44128 6.38209 -4.088 5.51417 6.33664 -4.12421 5.58523 6.37534 -4.15839 5.65447 6.49928 -4.19056 5.72193 6.71021 -4.22074 5.7876 7.0106 -4.24894 5.8515 7.40371 -4.2752 5.91366 7.89369 -4.66033 6.39777 8.35952 -5.39023 7.29255 8.55655 -6.09954 8.17063 8.51698 -6.78841 9.03214 8.22456 -7.45702 9.87722 7.65967 -8.10556 10.706 6.79863 -8.7342 11.5186 5.61284 -9.34313 12.3151 4.06759 -9.93254 13.0957 2.12058 -10.5026 13.8605 -0.280087 -11.0535 14.6096 -3.19859 -11.5855 15.3431 -6.715 -12.0987 16.0611 -10.9304 -12.5933 16.7638 -15.9737 -13.0695 17.4512 -22.0125 -3.48229 5.09903 9.05292 -3.52747 5.19126 8.40503 -3.57053 5.28158 7.84918 -3.61147 5.37002 7.38248 -3.6503 5.45661 7.00261 -3.68702 5.54136 6.70781 -3.72165 5.6243 6.49689 -3.75419 5.70544 6.36918 -3.78465 5.78481 6.32457 -3.81306 5.86241 6.36354 -3.83942 5.93828 6.48719 -3.86376 6.01241 6.69726 -3.88609 6.08483 6.9962 -3.90642 6.15555 7.38724 -3.92478 6.22459 7.87452 -4.28721 6.72567 8.33711 -4.97925 7.64822 8.53072 -5.65017 8.55509 8.48742 -6.30015 9.44641 8.19085 -6.92936 10.3223 7.6213 -7.53798 11.1828 6.75499 -8.12619 12.0282 5.56324 -8.69418 12.8584 4.01129 -9.24215 13.6736 2.05681 -9.77028 14.4739 -0.352031 -10.2788 15.2595 -3.27928 -10.7678 16.0303 -6.80472 -11.2376 16.7866 -11.0289 -11.6883 17.5283 -16.0799 -12.1202 18.2557 -22.1236 -3.2381 5.31677 9.00412 -3.2749 5.41492 8.36359 -3.30962 5.51122 7.81405 -3.34226 5.60571 7.35267 -3.37281 5.69842 6.9772 -3.40126 5.78937 6.68593 -3.42764 5.87857 6.4777 -3.45193 5.96606 6.35188 -3.47414 6.05185 6.30838 -3.4943 6.13595 6.3477 -3.51241 6.21839 6.47094 -3.52848 6.29917 6.67982 -3.54252 6.37832 6.97679 -3.55457 6.45585 7.36505 -3.56462 6.53176 7.84868 -3.90329 7.0488 8.30691 -4.55583 7.99716 8.49593 -5.18685 8.93093 8.44765 -5.79652 9.85021 8.14556 -6.385 10.7551 7.56981 -6.95246 11.6457 6.69652 -7.4991 12.5222 5.49689 -8.02508 13.3846 3.93611 -8.5306 14.233 1.97185 -9.01586 15.0674 -0.447696 -9.48104 15.8881 -3.38634 -9.92634 16.6951 -6.92348 -10.352 17.4884 -11.1589 -10.7581 18.2682 -16.2196 -11.145 19.0345 -22.2695 -2.99139 5.53199 8.94312 -3.01907 5.63597 8.31177 -3.04475 5.73818 7.77009 -3.06841 5.83865 7.31535 -3.09003 5.93742 6.94537 -3.10961 6.0345 6.65849 -3.12713 6.12993 6.45361 -3.1426 6.22372 6.33012 -3.15601 6.31589 6.28799 -3.16736 6.40647 6.32771 -3.17668 6.49546 6.45039 -3.18396 6.58289 6.65775 -3.18922 6.66876 6.9522 -3.19246 6.7531 7.33691 -3.19371 6.83592 7.8159 -3.50749 7.36784 8.26863 -4.11887 8.33986 8.45189 -4.70845 9.29843 8.39736 -5.27638 10.2437 8.08837 -5.82281 11.1757 7.50492 -6.3479 12.0945 6.62298 -6.85183 13.0003 5.41365 -7.33476 13.893 3.84202 -7.79687 14.7729 1.86576 -8.23836 15.64 -0.566809 -8.6594 16.4943 -3.51926 -9.0602 17.336 -7.07048 -9.44094 18.165 -11.3194 -9.80183 18.9815 -16.3914 -10.1431 19.7856 -22.448 -2.74274 5.74527 8.86991 -2.76039 5.85502 8.24955 -2.77618 5.96307 7.71729 -2.79006 6.06946 7.27049 -2.80198 6.17422 6.90706 -2.81193 6.27739 6.62543 -2.81989 6.379 6.42453 -2.82584 6.47905 6.30382 -2.82977 6.57759 6.26329 -2.83168 6.67462 6.30345 -2.83157 6.77016 6.4254 -2.82944 6.86424 6.63086 -2.82529 6.95686 6.92221 -2.81913 7.04803 7.30257 -2.81098 7.13779 7.77589 -3.09867 7.68339 8.22192 -3.66719 8.67669 8.39821 -4.21377 9.65776 8.33617 -4.73854 10.6267 8.01893 -5.24161 11.5836 7.42631 -5.72313 12.5285 6.53412 -6.18325 13.4615 5.31334 -6.62213 14.3828 3.72898 -7.03992 15.2923 1.73873 -7.43679 16.1901 -0.708968 -7.81292 17.0763 -3.67733 -8.1685 17.9509 -7.24461 -8.50369 18.8141 -11.5086 -8.8187 19.6659 -16.593 -9.11371 20.5063 -22.6562 -2.49292 5.95737 8.78451 -2.49945 6.07281 8.17692 -2.50431 6.18663 7.6556 -2.50742 6.29887 7.21803 -2.50872 6.40957 6.86222 -2.50817 6.51878 6.58667 -2.50571 6.6265 6.39039 -2.50133 6.73279 6.27288 -2.49499 6.83765 6.23415 -2.48668 6.94112 6.27475 -2.4764 7.04321 6.39579 -2.46412 7.14393 6.59894 -2.44984 7.24331 6.88657 -2.43357 7.34135 7.26172 -2.41531 7.43808 7.72825 -2.67563 7.99604 8.16634 -3.19956 9.00795 8.33446 -3.70158 10.0089 8.26365 -4.18175 10.999 7.93683 -4.64018 11.9783 7.33362 -5.07697 12.9469 6.42966 -5.49224 13.9048 5.1958 -5.88612 14.8522 3.59701 -6.25874 15.7891 1.591 -6.61025 16.7155 -0.873596 -6.94079 17.6316 -3.85958 -7.25054 18.5373 -7.44441 -7.53964 19.4327 -11.7246 -7.80827 20.3179 -16.8217 -8.05661 21.1929 -22.8908 -2.24294 6.16932 8.68691 -2.237 6.29034 8.09385 -2.22967 6.40982 7.58499 -2.22085 6.52781 7.15793 -2.21041 6.64436 6.81078 -2.1983 6.75951 6.54214 -2.18442 6.8733 6.35108 -2.16874 6.98575 6.23716 -2.15121 7.0969 6.20043 -2.13179 7.20676 6.24145 -2.11045 7.31536 6.36133 -2.08716 7.42272 6.56172 -2.06192 7.52886 6.84494 -2.03472 7.63378 7.21397 -2.00553 7.73751 7.67256 -2.23712 8.30631 8.10141 -2.7147 9.3338 8.26013 -3.17056 10.3517 8.17929 -3.60474 11.36 7.84158 -4.01728 12.3589 7.22643 -4.40824 13.3484 6.30931 -4.7777 14.3285 5.06094 -5.12574 15.2994 3.44624 -5.45247 16.2611 1.42299 -5.75799 17.2137 -1.05989 -6.04242 18.1571 -4.0647 -6.30589 19.0915 -7.66799 -6.54852 20.0169 -11.9647 -6.77047 20.9333 -17.0741 -6.97187 21.8408 -23.1472 -1.99413 6.38244 8.57711 -1.97405 6.50886 8.00033 -1.95301 6.63383 7.50541 -1.93082 6.75742 7.09011 -1.90733 6.87967 6.75265 -1.8824 7.00064 6.49172 -1.85592 7.12037 6.30647 -1.82781 7.23889 6.19652 -1.79799 7.35623 6.16195 -1.76641 7.47242 6.20333 -1.733 7.58747 6.32177 -1.69772 7.70143 6.5189 -1.66055 7.81429 6.79697 -1.62146 7.92608 7.15889 -1.58041 8.03681 7.60828 -1.78182 8.6147 8.02654 -2.21124 9.65432 8.17463 -2.61939 10.6857 8.08252 -3.00621 11.709 7.7327 -3.37169 12.7241 7.10436 -3.71582 13.7313 6.17282 -4.03863 14.7305 4.90869 -4.34016 15.7218 3.2769 -4.62044 16.7053 1.23534 -4.87954 17.681 -1.26674 -5.11753 18.649 -4.291 -5.33451 19.6093 -7.91291 -5.53055 20.5619 -12.2257 -5.70576 21.5069 -17.3457 -5.86025 22.4442 -23.4199 -1.74822 6.59845 8.4551 -1.71194 6.72999 7.89631 -1.67531 6.86018 7.41682 -1.63804 6.98912 7.01451 -1.59988 7.11685 6.68775 -1.56064 7.24343 6.43531 -1.52016 7.36891 6.25644 -1.47829 7.49332 6.15079 -1.43492 7.61671 6.1185 -1.38995 7.73909 6.16015 -1.3433 7.86049 6.27682 -1.2949 7.98093 6.47013 -1.24469 8.10044 6.74225 -1.19262 8.21903 7.09598 -1.13865 8.33672 7.53483 -1.30835 8.92168 7.94109 -1.68782 9.96943 8.07731 -2.04671 11.0104 7.97274 -2.38488 12.0447 7.60964 -2.70224 13.0724 6.967 -2.9987 14.0935 6.01998 -3.27421 15.1081 4.73914 -3.52873 16.1162 3.08943 -3.76226 17.118 1.02894 -3.97478 18.1134 -1.49266 -4.16632 19.1024 -4.53626 -4.3369 20.0852 -8.17607 -4.48657 21.0617 -12.5033 -4.61538 22.0321 -17.6313 -4.72337 22.9962 -23.7022 -1.50752 6.81968 8.3209 -1.45245 6.95586 7.78179 -1.3979 7.09085 7.31915 -1.34343 7.22474 6.93105 -1.28867 7.35758 6.61596 -1.23334 7.48944 6.37278 -1.17718 7.62037 6.20081 -1.11999 7.7504 6.09978 -1.0616 7.87958 6.06985 -1.00184 8.00793 6.11162 -0.940606 8.13547 6.22615 -0.877778 8.26224 6.41501 -0.813267 8.38825 6.68029 -0.746994 8.51351 7.02468 -0.678893 8.63805 7.45154 -0.81525 9.22767 7.84434 -1.14299 10.2789 7.96747 -1.45116 11.3249 7.84931 -1.73952 12.3658 7.47187 -2.00787 13.4015 6.81399 -2.25601 14.4322 5.8507 -2.48382 15.4579 4.55253 -2.69116 16.4786 2.88452 -2.87794 17.4945 0.805056 -3.04409 18.5054 -1.73567 -3.18955 19.5116 -4.79763 -3.31429 20.5129 -8.45357 -3.41828 21.5095 -12.7925 -3.5015 22.5013 -17.9242 -3.56395 23.4884 -23.9858 -1.27517 7.04926 8.1745 -1.19798 7.18932 7.65671 -1.12257 7.32841 7.21235 -1.04827 7.46662 6.83964 -0.974555 7.604 6.53718 -0.900975 7.74063 6.30397 -0.827164 7.87653 6.13941 -0.752813 8.01176 6.04327 -0.677662 8.14635 6.01574 -0.601492 8.28032 6.05743 -0.524117 8.41369 6.16938 -0.445377 8.5465 6.35308 -0.365134 8.67875 6.61056 -0.283272 8.81046 6.94436 -0.199687 8.94165 7.35768 -0.301018 9.53311 7.73547 -0.57528 10.5825 7.84435 -0.831393 11.6282 7.71155 -1.06896 12.6704 7.31888 -1.28764 13.709 6.64505 -1.48712 14.7442 5.66502 -1.66716 15.776 4.34933 -1.82753 16.8043 2.66321 -1.96803 17.8294 0.565417 -2.0885 18.8511 -1.99318 -2.18879 19.8695 -5.07146 -2.26879 20.8847 -8.74052 -2.32839 21.8967 -13.0868 -2.36751 22.9054 -18.2164 -2.38607 23.9109 -24.2609 -1.05547 7.29149 8.01589 -0.951796 7.4342 7.52105 -0.851753 7.57629 7.09635 -0.754336 7.71784 6.74018 -0.658733 7.85889 6.45126 -0.564279 7.99949 6.22873 -0.47043 8.13966 6.07203 -0.376732 8.27944 5.98101 -0.282805 8.41885 5.95588 -0.188331 8.5579 5.99723 -0.0930372 8.69663 6.10608 0.00330668 8.83503 6.28385 0.100899 8.97313 6.53245 0.199911 9.11094 6.85431 0.300491 9.24846 7.25241 0.235938 9.83839 7.61362 0.016788 10.8795 7.70713 -0.186097 11.9187 7.55877 -0.372136 12.9561 7.15021 -0.540819 13.9916 6.46002 -0.691695 15.0254 5.46318 -0.824366 16.0573 4.13033 -0.938482 17.0876 2.42696 -1.03373 18.1161 0.312347 -1.10983 19.143 -2.26182 -1.16655 20.1681 -5.35316 -1.20365 21.1916 -9.03084 -1.22095 22.2135 -13.3785 -1.21828 23.2337 -18.4982 -1.19548 24.2523 -24.5154 -0.854506 7.55245 7.84509 -0.718469 7.69581 7.37476 -0.588843 7.83918 6.97106 -0.464064 7.98254 6.63254 -0.342887 8.1259 6.35806 -0.224315 8.26927 6.14685 -0.107533 8.41263 5.99844 0.00812435 8.556 5.91272 0.123212 8.69936 5.88991 0.238191 8.84272 5.93061 0.353453 8.98609 6.03576 0.469328 9.12945 6.20673 0.586098 9.27281 6.4453 0.704007 9.41618 6.75374 0.823263 9.55954 7.1348 0.797282 10.1439 7.4778 0.634724 11.1693 7.55496 0.485969 12.1947 7.39032 0.351831 13.22 6.96546 0.233027 14.2454 6.25892 0.130194 15.2708 5.24572 0.0438974 16.2962 3.89673 -0.0253562 17.3216 2.17782 -0.0771136 18.3469 0.0489173 -0.110968 19.3723 -2.53728 -0.126551 20.3977 -5.63691 -0.123533 21.4231 -9.31697 -0.101613 22.4484 -13.658 -0.0605176 23.4738 -18.7576 0 24.4992 -24.7349 -4.85764 -0.365125 1.38871 -5.25221 -0.315016 1.40881 -5.63936 -0.265605 1.38945 -6.01803 -0.218472 1.33095 -6.38726 -0.174838 1.23352 -6.74609 -0.135651 1.09721 -7.09359 -0.10165 0.921967 -7.42886 -0.0734121 0.707598 -7.75102 -0.0513845 0.453761 -8.05917 -0.0359104 0.159971 -8.35241 -0.0272468 -0.174416 -8.62984 -0.0255784 -0.550209 -8.89054 -0.0310284 -0.968393 -9.13353 -0.0436661 -1.43014 -9.35782 -0.0635123 -1.93685 -9.41011 -0.141395 -2.4293 -9.30143 -0.250502 -2.86379 -9.18821 -0.333491 -3.28671 -9.07078 -0.392976 -3.69859 -8.94945 -0.431251 -4.09995 -8.82451 -0.450346 -4.4913 -8.69621 -0.452055 -4.87315 -8.56479 -0.437977 -5.24598 -8.43045 -0.409533 -5.61029 -8.29339 -0.367996 -5.96658 -8.15377 -0.314505 -6.31532 -8.01173 -0.250083 -6.65702 -7.86738 -0.175652 -6.99219 -7.72082 -0.0920418 -7.32133 -7.57212 1.5961e-14 -7.64498 -4.57968 -0.282891 1.47963 -4.98651 -0.184337 1.50641 -5.38519 -0.0910094 1.49417 -5.77475 -0.00378235 1.44326 -6.15424 0.0766634 1.3539 -6.52273 0.149796 1.22617 -6.87933 0.215199 1.06003 -7.22316 0.272551 0.855277 -7.55334 0.321606 0.611567 -7.86902 0.36218 0.328402 -8.1693 0.394144 0.00511798 -8.4533 0.41741 -0.359123 -8.72009 0.431933 -0.765343 -8.96872 0.437702 -1.21477 -9.1982 0.434738 -1.70882 -9.27275 0.373452 -2.19573 -9.20159 0.277837 -2.63406 -9.12307 0.203502 -3.06369 -9.03761 0.14828 -3.48529 -8.94557 0.110258 -3.89949 -8.84728 0.0877408 -4.30698 -8.74299 0.0792208 -4.70843 -8.63295 0.0833554 -5.10454 -8.51734 0.0989455 -5.49606 -8.39629 0.124918 -5.88374 -8.2699 0.160311 -6.2684 -8.13822 0.204263 -6.65088 -8.00125 0.255998 -7.03211 -7.85895 0.314822 -7.41307 -7.7112 0.380112 -7.79485 -4.32505 -0.177333 1.56406 -4.7399 -0.0380677 1.59634 -5.14623 0.0929155 1.59005 -5.54307 0.215138 1.54558 -5.92944 0.328225 1.46317 -6.30445 0.431884 1.34292 -6.6672 0.525888 1.1848 -7.0168 0.610066 0.988613 -7.3524 0.68429 0.754013 -7.67314 0.748469 0.480493 -7.97813 0.802545 0.167371 -8.2665 0.846488 -0.186213 -8.53732 0.880291 -0.581315 -8.78967 0.903971 -1.0192 -9.02254 0.917564 -1.50134 -9.11559 0.872953 -1.98228 -9.07654 0.791571 -2.42265 -9.02784 0.727065 -2.85683 -8.96995 0.677648 -3.2856 -8.90325 0.641733 -3.70975 -8.82807 0.617909 -4.1301 -8.74466 0.604919 -4.54753 -8.65323 0.601638 -4.96293 -8.55393 0.607057 -5.3773 -8.44683 0.620274 -5.79166 -8.33194 0.640476 -6.20715 -8.20923 0.666934 -6.62497 -8.07857 0.698992 -7.04648 -7.93976 0.736061 -7.47312 -7.79249 0.777612 -7.90655 -4.088 -0.0541884 1.64198 -4.50778 0.119852 1.67878 -4.91883 0.283553 1.67746 -5.32014 0.436644 1.63842 -5.71074 0.578914 1.56196 -6.08972 0.7102 1.44819 -6.45617 0.830374 1.2971 -6.80923 0.939344 1.10849 -7.14802 1.03704 0.882023 -7.47169 1.12343 0.61719 -7.77937 1.19847 0.313293 -8.07018 1.26217 -0.030546 -8.34322 1.31453 -0.415411 -8.59754 1.35557 -0.842598 -8.83217 1.38532 -1.31364 -8.94034 1.35728 -1.78843 -8.92852 1.29055 -2.22947 -8.90522 1.2367 -2.6665 -8.87089 1.19425 -3.10042 -8.82591 1.16189 -3.53213 -8.7706 1.13847 -3.96263 -8.70519 1.12292 -4.39296 -8.62984 1.11432 -4.82425 -8.54466 1.11182 -5.2577 -8.44964 1.11464 -5.69462 -8.34473 1.12211 -6.13646 -8.22977 1.1336 -6.58479 -8.10452 1.14855 -7.04136 -7.96862 1.16643 -7.50812 -7.82161 1.18679 -7.98725 -3.86437 0.0823647 1.71342 -4.28674 0.286505 1.75391 -4.70021 0.478942 1.75669 -5.10378 0.659501 1.72222 -5.49645 0.828043 1.65082 -5.8773 0.98446 1.54263 -6.24542 1.12867 1.39765 -6.59995 1.26061 1.2157 -6.94002 1.38024 0.996445 -7.26479 1.48752 0.739373 -7.57338 1.58243 0.443782 -7.86494 1.66498 0.108774 -8.13856 1.73515 -0.266753 -8.39332 1.79296 -0.684126 -8.62824 1.83841 -1.14491 -8.74847 1.82667 -1.6136 -8.75948 1.77475 -2.0543 -8.75754 1.73207 -2.49288 -8.74312 1.69742 -2.93032 -8.71657 1.66973 -3.36767 -8.67817 1.64805 -3.80608 -8.62812 1.6315 -4.24675 -8.56655 1.61929 -4.69102 -8.49349 1.61072 -5.14031 -8.40889 1.60514 -5.59621 -8.31259 1.60195 -6.06046 -8.20434 1.60061 -6.53499 -8.08378 1.60062 -7.02195 -7.95041 1.60151 -7.52375 -7.80358 1.60284 -8.04314 -3.65103 0.229218 1.77836 -4.07416 0.459697 1.82184 -4.48825 0.677599 1.828 -4.89226 0.882774 1.79735 -5.28521 1.0751 1.73022 -5.66617 1.25448 1.6268 -6.03424 1.42084 1.4871 -6.38855 1.5741 1.31096 -6.72825 1.71423 1.09805 -7.05249 1.84118 0.847853 -7.36044 1.95492 0.559671 -7.65123 2.05542 0.232593 -7.92399 2.14266 -0.134502 -8.17779 2.21661 -0.542965 -8.41169 2.27726 -0.994397 -8.54121 2.28143 -1.45716 -8.57106 2.24424 -1.89683 -8.58685 2.21299 -2.33598 -8.58901 2.18668 -2.77569 -8.57788 2.16447 -3.21714 -8.55369 2.14556 -3.66162 -8.51661 2.12922 -4.11049 -8.46672 2.1148 -4.56529 -8.40399 2.1017 -5.02765 -8.3283 2.08935 -5.49942 -8.23942 2.07724 -5.98262 -8.137 2.06488 -6.47951 -8.02056 2.05179 -6.99265 -7.88947 2.03754 -7.5249 -7.74294 2.0217 -8.07953 -3.44564 0.384022 1.83681 -3.86806 0.637755 1.88269 -4.28126 0.87839 1.89161 -4.68421 1.10576 1.86412 -5.07593 1.31972 1.80059 -5.4555 1.52015 1.70121 -5.82202 1.70697 1.56603 -6.17464 1.88007 1.39491 -6.51252 2.03938 1.18753 -6.83483 2.18485 0.94337 -7.14075 2.3164 0.66173 -7.42943 2.43399 0.341696 -7.70002 2.53754 -0.0178686 -7.95162 2.62701 -0.418335 -8.1833 2.70232 -0.86133 -8.31962 2.72191 -1.31849 -8.3647 2.69918 -1.75668 -8.3949 2.67937 -2.19569 -8.41063 2.66172 -2.63672 -8.41217 2.64551 -3.08106 -8.39973 2.63012 -3.53012 -8.37345 2.61492 -3.98544 -8.33334 2.59939 -4.4487 -8.27932 2.58299 -4.92177 -8.21121 2.56523 -5.40671 -8.12871 2.54565 -5.90582 -8.03137 2.52379 -6.42168 -7.91864 2.49919 -6.95721 -7.78974 2.47141 -7.51572 -7.64376 2.43998 -8.10095 -3.24641 0.544981 1.88876 -3.66687 0.819396 1.93656 -4.07792 1.08044 1.94772 -4.47853 1.32792 1.92282 -4.86772 1.56163 1.86227 -5.24458 1.78143 1.7663 -5.60825 1.98718 1.63496 -5.95789 2.17875 1.46814 -6.29267 2.35604 1.26551 -6.61178 2.51894 1.02659 -6.91443 2.66735 0.75066 -7.1998 2.80117 0.436804 -7.46705 2.9203 0.0838782 -7.71532 3.02464 -0.309506 -7.94369 3.11407 -0.744999 -8.08456 3.14849 -1.19699 -8.14159 3.13975 -1.63343 -8.1832 3.13122 -2.07184 -8.20974 3.12229 -2.5135 -8.22147 3.11241 -2.95979 -8.21857 3.10103 -3.41226 -8.2011 3.08768 -3.87257 -8.16906 3.07187 -4.34258 -8.1223 3.05315 -4.82433 -8.0606 3.03109 -5.3201 -7.98358 3.00523 -5.83246 -7.89073 2.97515 -6.36427 -7.7814 2.94038 -6.91879 -7.65473 2.90044 -7.49972 -7.50966 2.85484 -8.1113 -3.05195 0.71071 1.93422 -3.4694 1.00363 1.98353 -3.87719 1.2831 1.99649 -4.27431 1.54885 1.97369 -4.65983 1.80066 1.91559 -5.03284 2.03831 1.82244 -5.39249 2.26162 1.69432 -5.73798 2.47042 1.53112 -6.06851 2.66454 1.33255 -6.38329 2.84385 1.09811 -6.68156 3.00819 0.827085 -6.96252 3.15743 0.518569 -7.22537 3.29141 0.171403 -7.46928 3.40997 -0.215812 -7.69337 3.51295 -0.644746 -7.83672 3.56154 -1.09207 -7.90274 3.56618 -1.52669 -7.95302 3.56859 -1.96421 -7.98789 3.56828 -2.406 -8.00755 3.56481 -2.85355 -8.01216 3.55775 -3.30849 -8.00173 3.54669 -3.77262 -7.97622 3.53123 -4.24794 -7.93544 3.51096 -4.73666 -7.87912 3.48546 -5.24127 -7.80682 3.45433 -5.76453 -7.71798 3.4171 -6.3096 -7.61187 3.3733 -6.88002 -7.48755 3.32242 -7.47988 -7.34387 3.26387 -8.11383 -2.86119 0.880139 1.97318 -3.27466 1.18969 2.02367 -3.67821 1.48585 2.03804 -4.07084 1.76828 2.01693 -4.45164 