<?xml version="1.0"?> 
<VTKFile type="StructuredGrid" version="0.1"> 
<StructuredGrid WholeExtent="0 14 0 14 0 29"> 
<Piece Extent="0 14 0 14 0 29"> 
<PointData>
<DataArray type="Float32" Name="efield" format="ascii" NumberOfComponents="3"> 
-0.617561 8.07773 5.55156 -0.46144 8.49581 5.79489 -0.285361 8.91389 5.86742 -0.0895572 9.33197 5.77349 0.12582 9.75005 5.51474 0.360666 10.1681 5.08996 0.614909 10.5862 4.49495 0.888494 11.0043 3.72202 0.552932 13.3316 3.18632 0.275817 15.6588 3.09413 0.0653167 17.9861 3.5395 -0.0721536 20.3133 4.6495 -0.131484 22.6406 6.59723 -0.108552 24.9679 9.62177 -3.21153e-14 27.2951 14.0602 -1.15832 7.55275 5.55769 -1.1007 7.93852 5.86643 -1.01924 8.32275 5.99194 -0.915749 8.70523 5.93997 -0.791529 9.08581 5.71297 -0.647551 9.46438 5.31003 -0.484574 9.84088 4.72653 -0.303201 10.2152 3.9537 -0.913855 12.6111 3.40542 -1.44293 14.9887 3.27785 -1.88641 17.3488 3.66373 -2.24127 19.6918 4.69052 -2.50522 22.0181 6.53507 -2.67656 24.3282 9.44688 -2.75404 26.6222 13.7867 -1.74355 7.07224 5.56287 -1.75502 7.42289 5.92669 -1.7433 7.77087 6.09642 -1.7103 8.11579 6.07925 -1.6575 8.45734 5.87855 -1.58603 8.79531 5.49382 -1.49683 9.12954 4.92036 -1.39066 9.45989 4.14865 -2.2584 11.8569 3.58802 -3.03161 14.2201 3.42726 -3.70889 16.5504 3.75699 -4.28945 18.8484 4.70357 -4.77289 21.1146 6.44507 -5.1592 23.3496 9.23744 -5.44863 25.5537 13.459 -2.34187 6.60482 5.56712 -2.4053 6.92142 5.9758 -2.44766 7.23405 6.18128 -2.47057 7.54224 6.19207 -2.47534 7.84562 6.01242 -2.46301 8.14395 5.64234 -2.43447 8.43703 5.07721 -2.39048 8.72471 4.30704 -3.49617 11.0747 3.7355 -4.50117 13.3769 3.54598 -5.40572 15.6322 3.82676 -6.21039 17.8415 4.70234 -6.916 20.0054 6.35056 -7.52363 22.1244 9.03094 -8.03449 24.199 13.1344 -2.93673 6.13395 5.57041 -3.04148 6.41862 6.01387 -3.12768 6.69774 6.24688 -3.19657 6.9709 6.27907 -3.24916 7.23779 6.11549 -3.28633 7.49817 5.75663 -3.30881 7.75189 5.19799 -3.31727 7.99882 4.42936 -4.64202 10.2663 3.84899 -5.86458 12.4733 3.63638 -6.98611 14.621 3.87762 -8.00795 16.7103 4.69528 -8.93161 18.7418 6.26619 -9.75874 20.7164 8.85161 -10.4911 22.6348 12.8511 -3.51888 5.65036 5.57277 -3.65826 5.90513 6.04099 -3.78161 6.15258 6.29352 -3.88978 6.39242 6.3408 -3.98351 6.62446 6.18853 -4.06343 6.84857 5.83756 -4.13011 7.06467 5.28356 -4.18406 7.2727 4.5162 -5.70982 9.43055 3.92938 -7.13521 11.5168 3.69999 -8.46181 13.5325 3.91237 -9.69131 15.4789 4.68744 -10.8255 17.3569 6.2009 -11.8662 19.1675 8.71469 -12.8153 20.9117 12.6338 -4.08309 5.14883 5.57418 -4.25306 5.37517 6.05724 -4.4094 5.59223 6.32141 -4.55261 5.79993 6.37768 -4.68315 5.99827 6.23211 -4.80142 6.18725 5.88584 -4.90779 6.36692 5.33462 -5.00264 6.53733 4.56806 -6.7122 8.56386 3.97735 -8.32573 10.509 3.73779 -9.84492 12.374 3.93265 -11.2715 14.1603 4.68175 -12.6071 15.8692 6.15994 -13.8538 17.5019 8.62935 -15.0131 19.0597 12.498 -4.62669 4.62669 5.57466 -4.82515 4.82515 6.06265 -5.01222 5.01222 6.33069 -5.18811 5.18811 6.38994 -5.35301 5.35301 6.2466 -5.50712 5.50712 5.90188 -5.65064 5.65064 5.35159 -5.78375 5.78375 4.58531 -7.66035 7.66035 3.99329 -9.44732 9.44732 3.75033 -11.1462 11.1462 3.93933 -12.7587 12.7587 4.6797 -14.2862 14.2862 6.14601 -15.7304 15.7304 8.6004 -17.0928 17.0928 12.4518 -5.14883 4.08309 5.57418 -5.37517 4.25306 6.05724 -5.59223 4.4094 6.32141 -5.79993 4.55261 6.37768 -5.99827 4.68315 6.23211 -6.18725 4.80142 5.88584 -6.36692 4.90779 5.33462 -6.53733 5.00264 4.56806 -8.56386 6.7122 3.97735 -10.509 8.32573 3.73779 -12.374 9.84492 3.93265 -14.1603 11.2715 4.68175 -15.8692 12.6071 6.15994 -17.5019 13.8538 8.62935 -19.0597 15.0131 12.498 -5.65036 3.51888 5.57277 -5.90513 3.65826 6.04099 -6.15258 3.78161 6.29352 -6.39242 3.88978 6.3408 -6.62446 3.98351 6.18853 -6.84857 4.06343 5.83756 -7.06467 4.13011 5.28356 -7.2727 4.18406 4.5162 -9.43055 5.70982 3.92938 -11.5168 7.13521 3.69999 -13.5325 8.46181 3.91237 -15.4789 9.69131 4.68744 -17.3569 10.8255 6.2009 -19.1675 11.8662 8.71469 -20.9117 12.8153 12.6338 -6.13395 2.93673 5.57041 -6.41862 3.04148 6.01387 -6.69774 3.12768 6.24688 -6.9709 3.19657 6.27907 -7.23779 3.24916 6.11549 -7.49817 3.28633 5.75663 -7.75189 3.30881 5.19799 -7.99882 3.31727 4.42936 -10.2663 4.64202 3.84899 -12.4733 5.86458 3.63638 -14.621 6.98611 3.87762 -16.7103 8.00795 4.69528 -18.7418 8.93161 6.26619 -20.7164 9.75874 8.85161 -22.6348 10.4911 12.8511 -6.60482 2.34187 5.56712 -6.92142 2.4053 5.9758 -7.23405 2.44766 6.18128 -7.54224 2.47057 6.19207 -7.84562 2.47534 6.01242 -8.14395 2.46301 5.64234 -8.43703 2.43447 5.07721 -8.72471 2.39048 4.30704 -11.0747 3.49617 3.7355 -13.3769 4.50117 3.54598 -15.6322 5.40572 3.82676 -17.8415 6.21039 4.70234 -20.0054 6.916 6.35056 -22.1244 7.52363 9.03094 -24.199 8.03449 13.1344 -7.07224 1.74355 5.56287 -7.42289 1.75502 5.92669 -7.77087 1.7433 6.09642 -8.11579 1.7103 6.07925 -8.45734 1.6575 5.87855 -8.79531 1.58603 5.49382 -9.12954 1.49683 4.92036 -9.45989 1.39066 4.14865 -11.8569 2.2584 3.58802 -14.2201 3.03161 3.42726 -16.5504 3.70889 3.75699 -18.8484 4.28945 4.70357 -21.1146 4.77289 6.44507 -23.3496 5.1592 9.23744 -25.5537 5.44863 13.459 -7.55275 1.15832 5.55769 -7.93852 1.1007 5.86643 -8.32275 1.01924 5.99194 -8.70523 0.915749 5.93997 -9.08581 0.791529 5.71297 -9.46438 0.647551 5.31003 -9.84088 0.484574 4.72653 -10.2152 0.303201 3.9537 -12.6111 0.913855 3.40542 -14.9887 1.44293 3.27785 -17.3488 1.88641 3.66373 -19.6918 2.24127 4.69052 -22.0181 2.50522 6.53507 -24.3282 2.67656 9.44688 -26.6222 2.75404 13.7867 -8.07773 0.617561 5.55156 -8.49581 0.46144 5.79489 -8.91389 0.285361 5.86742 -9.33197 0.0895572 5.77349 -9.75005 -0.12582 5.51474 -10.1681 -0.360666 5.08996 -10.5862 -0.614909 4.49495 -11.0043 -0.888494 3.72202 -13.3316 -0.552932 3.18632 -15.6588 -0.275817 3.09413 -17.9861 -0.0653167 3.5395 -20.3133 0.0721536 4.6495 -22.6406 0.131484 6.59723 -24.9679 0.108552 9.62177 -27.2951 3.21153e-14 14.0602 0.352001 6.33819 14.2438 0.127502 7.23336 14.2011 -0.00296452 8.104 14.2163 -0.0502453 8.9423 14.287 -0.0211271 9.74097 14.4107 0.0796826 10.4933 14.5853 0.248521 11.1929 14.8089 0.482197 11.8341 15.0797 0.557697 12.7641 15.5264 0.547301 13.6101 16.0052 0.479824 14.3678 16.5141 0.376953 15.0333 17.0513 0.255046 15.6033 17.6159 0.12637 16.0749 18.2073 -3.21909e-14 16.4454 18.826 -0.0999516 5.8344 14.2158 -0.425875 6.69728 14.1808 -0.664443 7.53539 14.191 -0.823147 8.34009 14.2442 -0.906994 9.1036 14.3384 -0.919695 9.81895 14.4722 -0.864328 10.4798 14.6445 -0.743724 11.0803 14.8548 -0.892981 12.2252 15.3329 -1.06331 13.2495 15.8431 -1.23523 14.1503 16.3859 -1.39424 14.9245 16.9629 -1.52971 15.5689 17.577 -1.63407 16.0803 18.2327 -1.70225 16.4549 18.9374 -0.587409 5.36612 14.1921 -0.992935 6.19521 14.1689 -1.31885 6.99767 14.1806 -1.5696 7.76471 14.2249 -1.74829 8.48862 14.3 -1.85737 9.16253 14.4049 -1.89901 9.78026 14.5392 -1.87535 10.3362 14.7033 -2.23922 11.6127 15.1917 -2.57278 12.7442 15.7075 -2.86294 13.7283 16.2535 -3.10016 14.5619 16.8346 -3.27774 15.2419 17.4578 -3.39123 15.7643 18.1327 -3.43807 16.1243 18.8733 -1.0894 4.91237 14.1728 -1.5605 5.70791 14.1626 -1.9594 6.47366 14.1792 -2.28801 7.2012 14.22 -2.54771 7.8832 14.2834 -2.73965 8.51319 14.3685 -2.86499 9.08542 14.4754 -2.92505 9.59471 14.605 -3.4891 10.9373 15.0926 -3.98218 12.1197 15.6004 -4.39549 13.1394 16.1337 -4.72277 13.9934 16.6999 -4.9598 14.6785 17.3097 -5.10396 15.1902 17.9778 -5.15388 15.5229 18.7238 -1.59425 4.46148 14.1577 -2.12114 5.22377 14.1597 -2.58258 5.95226 14.1823 -2.97843 6.6392 14.2228 -3.30848 7.2779 14.2794 -3.57268 7.86249 14.3515 -3.77116 8.38781 14.4392 -3.90434 8.84923 14.5441 -4.65129 10.2058 15.0262 -5.29529 11.394 15.521 -5.83033 12.4113 16.0355 -6.25218 13.2548 16.5797 -6.55802 13.9212 17.1671 -6.74605 14.4061 17.8163 -6.81504 14.7036 18.5521 -2.09517 4.00665 14.1469 -2.67067 4.73546 14.1586 -3.18687 5.42595 14.1867 -3.6419 6.07123 14.2282 -4.03416 6.66541 14.2812 -4.36243 7.20337 14.3452 -4.62586 7.68066 14.4204 -4.82393 8.09334 14.5088 -5.73444 9.42167 14.9846 -6.5172 10.5793 15.4668 -7.16792 11.5638 15.9637 -7.68353 12.3723 16.4868 -8.06182 13.0018 17.0521 -8.30104 13.4482 17.6809 -8.39943 13.7059 18.4018 -2.58823 3.54397 14.1404 -3.20697 4.2383 14.1584 -3.77209 4.88946 14.1902 -4.28022 5.49159 14.2328 -4.72854 6.03971 14.2842 -5.11472 6.52956 14.3437 -5.43694 6.95749 14.4119 -5.69378 7.32036 14.4908 -6.74665 8.58538 14.962 -7.6531 9.68274 15.4355 -8.40986 10.6099 15.9201 -9.01437 11.3642 16.4286 -9.46451 11.9431 16.9782 -9.7581 12.3429 17.592 -9.89243 12.5588 18.3012 -3.07138 3.07138 14.1383 -3.72935 3.72935 14.1584 -4.33905 4.33905 14.1916 -4.8958 4.8958 14.2345 -5.39563 5.39563 14.2854 -5.83522 5.83522 14.3436 -6.21181 6.21181 14.4096 -6.5231 6.5231 14.4853 -7.69504 7.69504 14.9549 -8.70739 8.70739 15.4252 -9.55737 9.55737 15.9055 -10.2425 10.2425 16.4088 -10.7605 10.7605 16.9528 -11.1085 11.1085 17.5612 -11.2827 11.2827 18.2659 -3.54397 2.58823 14.1404 -4.2383 3.20697 14.1584 -4.88946 3.77209 14.1902 -5.49159 4.28022 14.2328 -6.03971 4.72854 14.2842 -6.52956 5.11472 14.3437 -6.95749 5.43694 14.4119 -7.32036 5.69378 14.4908 -8.58538 6.74665 14.962 -9.68274 7.6531 15.4355 -10.6099 8.40986 15.9201 -11.3642 9.01437 16.4286 -11.9431 9.46451 16.9782 -12.3429 9.7581 17.592 -12.5588 9.89243 18.3012 -4.00665 2.09517 14.1469 -4.73546 2.67067 14.1586 -5.42595 3.18687 14.1867 -6.07123 3.6419 14.2282 -6.66541 4.03416 14.2812 -7.20337 4.36243 14.3452 -7.68066 4.62586 14.4204 -8.09334 4.82393 14.5088 -9.42167 5.73444 14.9846 -10.5793 6.5172 15.4668 -11.5638 7.16792 15.9637 -12.3723 7.68353 16.4868 -13.0018 8.06182 17.0521 -13.4482 8.30104 17.6809 -13.7059 8.39943 18.4018 -4.46148 1.59425 14.1577 -5.22377 2.12114 14.1597 -5.95226 2.58258 14.1823 -6.6392 2.97843 14.2228 -7.2779 3.30848 14.2794 -7.86249 3.57268 14.3515 -8.38781 3.77116 14.4392 -8.84923 3.90434 14.5441 -10.2058 4.65129 15.0262 -11.394 5.29529 15.521 -12.4113 5.83033 16.0355 -13.2548 6.25218 16.5797 -13.9212 6.55802 17.1671 -14.4061 6.74605 17.8163 -14.7036 6.81504 18.5521 -4.91237 1.0894 14.1728 -5.70791 1.5605 14.1626 -6.47366 1.9594 14.1792 -7.2012 2.28801 14.22 -7.8832 2.54771 14.2834 -8.51319 2.73965 14.3685 -9.08542 2.86499 14.4754 -9.59471 2.92505 14.605 -10.9373 3.4891 15.0926 -12.1197 3.98218 15.6004 -13.1394 4.39549 16.1337 -13.9934 4.72277 16.6999 -14.6785 4.9598 17.3097 -15.1902 5.10396 17.9778 -15.5229 5.15388 18.7238 -5.36612 0.587409 14.1921 -6.19521 0.992935 14.1689 -6.99767 1.31885 14.1806 -7.76471 1.5696 14.2249 -8.48862 1.74829 14.3 -9.16253 1.85737 14.4049 -9.78026 1.89901 14.5392 -10.3362 1.87535 14.7033 -11.6127 2.23922 15.1917 -12.7442 2.57278 15.7075 -13.7283 2.86294 16.2535 -14.5619 3.10016 16.8346 -15.2419 3.27774 17.4578 -15.7643 3.39123 18.1327 -16.1243 3.43807 18.8733 -5.8344 0.0999516 14.2158 -6.69728 0.425875 14.1808 -7.53539 0.664443 14.191 -8.34009 0.823147 14.2442 -9.1036 0.906994 14.3384 -9.81895 0.919695 14.4722 -10.4798 0.864328 14.6445 -11.0803 0.743724 14.8548 -12.2252 0.892981 15.3329 -13.2495 1.06331 15.8431 -14.1503 1.23523 16.3859 -14.9245 1.39424 16.9629 -15.5689 1.52971 17.577 -16.0803 1.63407 18.2327 -16.4549 1.70225 18.9374 -6.33819 -0.352001 14.2438 -7.23336 -0.127502 14.2011 -8.104 0.00296452 14.2163 -8.9423 0.0502453 14.287 -9.74097 0.0211271 14.4107 -10.4933 -0.0796826 14.5853 -11.1929 -0.248521 14.8089 -11.8341 -0.482197 15.0797 -12.7641 -0.557697 15.5264 -13.6101 -0.547301 16.0052 -14.3678 -0.479824 16.5141 -15.0333 -0.376953 17.0513 -15.6033 -0.255046 17.6159 -16.0749 -0.12637 18.2073 -16.4454 3.21909e-14 18.826 -0.122045 5.18377 20.9417 -0.0323194 5.80715 20.9985 -0.0178849 6.42381 21.0822 -0.0267564 7.0318 21.1821 -0.0268328 7.63105 21.2851 0.00396728 8.22384 21.3758 0.082296 8.81526 21.436 0.221867 9.41373 21.4445 0.378912 9.84447 21.3974 0.409732 10.2241 21.5127 0.363995 10.5421 21.7709 0.277579 10.7903 22.1529 0.176466 10.9633 22.6403 0.0794387 11.0578 23.2156 2.72814e-14 11.0729 23.8619 -0.402349 4.74097 20.8599 -0.465007 5.41393 20.9402 -0.562642 6.06172 21.0309 -0.662375 6.68443 21.1191 -0.742438 7.28306 21.1898 -0.787347 7.86046 21.226 -0.785462 8.422 21.2082 -0.727561 8.97602 21.1144 -0.74638 9.60119 21.1447 -0.827734 10.1244 21.3334 -0.932656 10.5389 21.6593 -1.03325 10.8403 22.1015 -1.10991 11.0259 22.6401 -1.14928 11.0947 23.2567 -1.14286 11.0476 23.9345 -0.705016 4.32053 20.7906 -0.895598 5.01917 20.8967 -1.09415 5.68226 20.9996 -1.27898 6.30938 21.0847 -1.43502 6.90119 21.1354 -1.55147 7.46029 21.1331 -1.62055 7.9918 21.0575 -1.63665 8.50376 20.886 -1.82404 9.26502 20.9649 -2.01782 9.88673 21.1939 -2.18786 10.3648 21.5503 -2.31315 10.6968 22.0123 -2.37967 10.8822 22.5597 -2.37895 10.9222 23.1741 -2.3069 10.8192 23.8393 -1.0239 3.91631 20.734 -1.32348 4.62204 20.865 -1.6127 5.28667 20.9825 -1.87635 5.90831 21.0701 -2.10365 6.48665 21.1096 -2.28711 7.02363 21.0814 -2.42183 7.52384 20.9642 -2.50511 7.99481 20.7352 -2.8502 8.84191 20.8437 -3.15265 9.5239 21.0917 -3.38958 10.0379 21.4558 -3.54572 10.3829 21.914 -3.61181 10.56 22.4462 -3.58348 10.5717 23.0347 -3.46028 10.422 23.6648 -1.3552 3.52451 20.6899 -1.74823 4.222 20.8429 -2.11838 4.87583 20.9747 -2.45414 5.48246 21.0674 -2.74743 6.04046 21.1018 -2.99305 6.55093 21.057 -3.1883 7.01777 20.9112 -3.33278 7.44783 20.6411 -3.82151 8.33721 20.767 -4.22554 9.0467 21.0216 -4.52784 9.57371 21.3814 -4.7178 9.91803 21.8246 -4.79006 10.0816 22.3316 -4.74354 10.0682 22.8856 -4.58059 9.88274 23.4736 -1.69655 3.14275 20.6585 -2.16959 3.81871 20.8284 -2.61118 4.4504 20.9721 -3.01193 5.03285 21.0703 -3.36548 5.56355 21.1029 -3.66821 6.04273 21.0482 -3.91912 6.47351 20.884 -4.11962 6.86195 20.5868 -4.73501 7.75562 20.7222 -5.23062 8.46447 20.9774 -5.59407 8.98547 21.3288 -5.81845 9.31845 21.7549 -5.90143 9.46578 22.2368 -5.84441 9.43181 22.7588 -5.65172 9.22231 23.309 -2.0465 2.7696 20.6396 -2.58737 3.41191 20.8203 -3.09098 4.01087 20.9717 -3.54925 4.56032 21.074 -3.95694 5.05678 21.1063 -4.31161 5.49965 21.0466 -4.61357 5.89119 20.8721 -4.86573 6.23658 20.5595 -5.58794 7.10123 20.6996 -6.16249 7.78521 20.9535 -6.58056 8.28432 21.2977 -6.83807 8.59777 21.7111 -6.93492 8.72775 22.1753 -6.8742 8.67877 22.675 -6.66151 8.45703 23.1996 -2.40426 2.40426 20.6333 -3.00148 3.00148 20.8177 -3.55763 3.55763 20.9718 -4.06557 4.06557 21.0756 -4.52097 4.52097 21.1079 -4.92236 4.92236 21.0466 -5.27109 5.27109 20.8689 -5.57129 5.57129 20.5513 -6.37763 6.37763 20.6927 -7.01586 7.01586 20.9459 -7.47987 7.47987 21.2875 -7.7676 7.7676 21.6963 -7.88041 7.88041 22.154 -7.82244 7.82244 22.6459 -7.59986 7.59986 23.1614 -2.7696 2.0465 20.6396 -3.41191 2.58737 20.8203 -4.01087 3.09098 20.9717 -4.56032 3.54925 21.074 -5.05678 3.95694 21.1063 -5.49965 4.31161 21.0466 -5.89119 4.61357 20.8721 -6.23658 4.86573 20.5595 -7.10123 5.58794 20.6996 -7.78521 6.16249 20.9535 -8.28432 6.58056 21.2977 -8.59777 6.83807 21.7111 -8.72775 6.93492 22.1753 -8.67877 6.8742 22.675 -8.45703 6.66151 23.1996 -3.14275 1.69655 20.6585 -3.81871 2.16959 20.8284 -4.4504 2.61118 20.9721 -5.03285 3.01193 21.0703 -5.56355 3.36548 21.1029 -6.04273 3.66821 21.0482 -6.47351 3.91912 20.884 -6.86195 4.11962 20.5868 -7.75562 4.73501 20.7222 -8.46447 5.23062 20.9774 -8.98547 5.59407 21.3288 -9.31845 5.81845 21.7549 -9.46578 5.90143 22.2368 -9.43181 5.84441 22.7588 -9.22231 5.65172 23.309 -3.52451 1.3552 20.6899 -4.222 1.74823 20.8429 -4.87583 2.11838 20.9747 -5.48246 2.45414 21.0674 -6.04046 2.74743 21.1018 -6.55093 2.99305 21.057 -7.01777 3.1883 20.9112 -7.44783 3.33278 20.6411 -8.33721 3.82151 20.767 -9.0467 4.22554 21.0216 -9.57371 4.52784 21.3814 -9.91803 4.7178 21.8246 -10.0816 4.79006 22.3316 -10.0682 4.74354 22.8856 -9.88274 4.58059 23.4736 -3.91631 1.0239 20.734 -4.62204 1.32348 20.865 -5.28667 1.6127 20.9825 -5.90831 1.87635 21.0701 -6.48665 2.10365 21.1096 -7.02363 2.28711 21.0814 -7.52384 2.42183 20.9642 -7.99481 2.50511 20.7352 -8.84191 2.8502 20.8437 -9.5239 3.15265 21.0917 -10.0379 3.38958 21.4558 -10.3829 3.54572 21.914 -10.56 3.61181 22.4462 -10.5717 3.58348 23.0347 -10.422 3.46028 23.6648 -4.32053 0.705016 20.7906 -5.01917 0.895598 20.8967 -5.68226 1.09415 20.9996 -6.30938 1.27898 21.0847 -6.90119 1.43502 21.1354 -7.46029 1.55147 21.1331 -7.9918 1.62055 21.0575 -8.50376 1.63665 20.886 -9.26502 1.82404 20.9649 -9.88673 2.01782 21.1939 -10.3648 2.18786 21.5503 -10.6968 2.31315 22.0123 -10.8822 2.37967 22.5597 -10.9222 2.37895 23.1741 -10.8192 2.3069 23.8393 -4.74097 0.402349 20.8599 -5.41393 0.465007 20.9402 -6.06172 0.562642 21.0309 -6.68443 0.662375 21.1191 -7.28306 0.742438 21.1898 -7.86046 0.787347 21.226 -8.422 0.785462 21.2082 -8.97602 0.727561 21.1144 -9.60119 0.74638 21.1447 -10.1244 0.827734 21.3334 -10.5389 0.932656 21.6593 -10.8403 1.03325 22.1015 -11.0259 1.10991 22.6401 -11.0947 1.14928 23.2567 -11.0476 1.14286 23.9345 -5.18377 0.122045 20.9417 -5.80715 0.0323194 20.9985 -6.42381 0.0178849 21.0822 -7.0318 0.0267564 21.1821 -7.63105 0.0268328 21.2851 -8.22384 -0.00396728 21.3758 -8.81526 -0.082296 21.436 -9.41373 -0.221867 21.4445 -9.84447 -0.378912 21.3974 -10.2241 -0.409732 21.5127 -10.5421 -0.363995 21.7709 -10.7903 -0.277579 22.1529 -10.9633 -0.176466 22.6403 -11.0578 -0.0794387 23.2156 -11.0729 -2.72814e-14 23.8619 -0.0443718 4.51982 21.8129 0.114823 5.20023 22.0509 0.134995 5.86733 22.2143 0.0893001 6.53021 22.3033 0.0224388 7.19802 22.3176 -0.0341489 7.88016 22.2557 -0.0556007 8.58644 22.1157 -0.020295 9.32724 21.8947 0.220331 9.46876 21.4387 0.339197 9.49845 21.389 0.382004 9.35923 21.764 0.3734 8.98839 22.5877 0.319036 8.31598 23.8911 0.205714 7.26273 25.7132 1.7848e-14 5.73744 28.1028 -0.191501 4.0276 21.686 -0.24151 4.79129 21.9987 -0.364133 5.51547 22.2116 -0.517325 6.21285 22.3222 -0.673133 6.89508 22.3263 -0.810821 7.57398 22.2178 -0.913595 8.26225 21.9882 -0.96683 8.97416 21.6267 -0.872785 9.31062 21.1814 -0.834723 9.49026 21.1667 -0.811665 9.46008 21.6032 -0.779031 9.15941 22.5226 -0.727157 8.5169 23.9703 -0.661386 7.44575 26.0117 -0.603764 5.83634 28.7398 -0.38483 3.58158 21.5786 -0.605044 4.39284 21.9549 -0.853651 5.15106 22.21 -1.10677 5.86829 22.3395 -1.34746 6.55614 22.3361 -1.56285 7.22694 22.19 -1.74271 7.89463 21.8878 -1.87862 8.57569 21.4121 -1.92661 9.05175 20.9659 -1.97182 9.33873 20.9655 -1.97659 9.38742 21.4326 -1.91545 9.14026 22.4035 -1.77357 8.52695 23.9358 -1.54608 7.45715 26.1185 -1.23843 5.80814 29.0886 -0.612172 3.16957 21.4908 -0.973442 4.00151 21.9193 -1.3332 4.77417 22.2091 -1.67818 5.49737 22.3544 -1.99869 6.18141 22.3458 -2.28767 6.83803 22.1703 -2.54018 7.48128 21.8106 -2.75327 8.12848 21.2443 -2.93514 8.69654 20.7914 -3.06209 9.05466 20.7934 -3.09861 9.15718 21.2719 -3.01768 8.95023 22.2664 -2.79858 8.36642 23.8436 -2.42485 7.31549 26.1125 -1.88174 5.66758 29.2507 -0.865946 2.784 21.4225 -1.34518 3.61507 21.8917 -1.80244 4.38495 22.2088 -2.23068 5.10089 22.3666 -2.62504 5.77139 22.3544 -2.98275 6.40696 22.1568 -3.30321 7.02098 21.7536 -3.58818 7.63058 21.1185 -3.89245 8.24929 20.6569 -4.09622 8.64768 20.6555 -4.1651 8.78325 21.135 -4.06996 8.60612 22.1369 -3.78386 8.05317 23.7347 -3.27811 7.03736 26.0529 -2.51576 5.42782 29.3031 -1.14138 2.42008 21.3737 -1.71927 3.23201 21.8721 -2.26105 3.98358 22.2086 -2.76342 4.67966 22.3756 -3.22479 5.32683 22.361 -3.64569 5.93406 22.148 -4.02907 6.51347 21.7144 -4.38075 7.08117 21.0312 -4.79277 7.71439 20.5617 -5.06539 8.12661 20.555 -5.16447 8.27804 21.0312 -5.05827 8.12288 22.0329 -4.71351 7.60319 23.6379 -4.08922 6.63774 25.9819 -3.12588 5.10071 29.3023 -1.43557 2.07492 21.3444 -2.09512 2.85134 21.8603 -2.70875 3.57027 22.2086 -3.27553 4.23448 22.3812 -3.79632 4.84868 22.3652 -4.27424 5.42011 22.1431 -4.71519 5.95919 21.6915 -5.12843 6.48035 20.9797 -5.63047 7.0964 20.5048 -5.96115 7.49978 20.494 -6.08584 7.65297 20.9668 -5.9698 7.51409 21.9662 -5.57331 7.03099 23.5725 -4.84365 6.13039 25.9284 -3.69981 4.69704 29.2869 -1.74691 1.74691 21.3347 -2.47248 2.47248 21.8564 -3.14524 3.14524 22.2086 -3.76616 3.76616 22.383 -4.33809 4.33809 22.3667 -4.86632 4.86632 22.1416 -5.35923 5.35923 21.684 -5.82895 5.82895 20.9627 -6.40009 6.40009 20.4859 -6.77529 6.77529 20.4735 -6.91877 6.91877 20.9449 -6.79237 6.79237 21.9432 -6.35007 6.35007 23.5496 -5.52822 5.52822 25.9087 -4.22683 4.22683 29.2793 -2.07492 1.43557 21.3444 -2.85134 2.09512 21.8603 -3.57027 2.70875 22.2086 -4.23448 3.27553 22.3812 -4.84868 3.79632 22.3652 -5.42011 4.27424 22.1431 -5.95919 4.71519 21.6915 -6.48035 5.12843 20.9797 -7.0964 5.63047 20.5048 -7.49978 5.96115 20.494 -7.65297 6.08584 20.9668 -7.51409 5.9698 21.9662 -7.03099 5.57331 23.5725 -6.13039 4.84365 25.9284 -4.69704 3.69981 29.2869 -2.42008 1.14138 21.3737 -3.23201 1.71927 21.8721 -3.98358 2.26105 22.2086 -4.67966 2.76342 22.3756 -5.32683 3.22479 22.361 -5.93406 3.64569 22.148 -6.51347 4.02907 21.7144 -7.08117 4.38075 21.0312 -7.71439 4.79277 20.5617 -8.12661 5.06539 20.555 -8.27804 5.16447 21.0312 -8.12288 5.05827 22.0329 -7.60319 4.71351 23.6379 -6.63774 4.08922 25.9819 -5.10071 3.12588 29.3023 -2.784 0.865946 21.4225 -3.61507 1.34518 21.8917 -4.38495 1.80244 22.2088 -5.10089 2.23068 22.3666 -5.77139 2.62504 22.3544 -6.40696 2.98275 22.1568 -7.02098 3.30321 21.7536 -7.63058 3.58818 21.1185 -8.24929 3.89245 20.6569 -8.64768 4.09622 20.6555 -8.78325 4.1651 21.135 -8.60612 4.06996 22.1369 -8.05317 3.78386 23.7347 -7.03736 3.27811 26.0529 -5.42782 2.51576 29.3031 -3.16957 0.612172 21.4908 -4.00151 0.973442 21.9193 -4.77417 1.3332 22.2091 -5.49737 1.67818 22.3544 -6.18141 1.99869 22.3458 -6.83803 2.28767 22.1703 -7.48128 2.54018 21.8106 -8.12848 2.75327 21.2443 -8.69654 2.93514 20.7914 -9.05466 3.06209 20.7934 -9.15718 3.09861 21.2719 -8.95023 3.01768 22.2664 -8.36642 2.79858 23.8436 -7.31549 2.42485 26.1125 -5.66758 1.88174 29.2507 -3.58158 0.38483 21.5786 -4.39284 0.605044 21.9549 -5.15106 0.853651 22.21 -5.86829 1.10677 22.3395 -6.55614 1.34746 22.3361 -7.22694 1.56285 22.19 -7.89463 1.74271 21.8878 -8.57569 1.87862 21.4121 -9.05175 1.92661 20.9659 -9.33873 1.97182 20.9655 -9.38742 1.97659 21.4326 -9.14026 1.91545 22.4035 -8.52695 1.77357 23.9358 -7.45715 1.54608 26.1185 -5.80814 1.23843 29.0886 -4.0276 0.191501 21.686 -4.79129 0.24151 21.9987 -5.51547 0.364133 22.2116 -6.21285 0.517325 22.3222 -6.89508 0.673133 22.3263 -7.57398 0.810821 22.2178 -8.26225 0.913595 21.9882 -8.97416 0.96683 21.6267 -9.31062 0.872785 21.1814 -9.49026 0.834723 21.1667 -9.46008 0.811665 21.6032 -9.15941 0.779031 22.5226 -8.5169 0.727157 23.9703 -7.44575 0.661386 26.0117 -5.83634 0.603764 28.7398 -4.51982 0.0443718 21.8129 -5.20023 -0.114823 22.0509 -5.86733 -0.134995 22.2143 -6.53021 -0.0893001 22.3033 -7.19802 -0.0224388 22.3176 -7.88016 0.0341489 22.2557 -8.58644 0.0556007 22.1157 -9.32724 0.020295 21.8947 -9.46876 -0.220331 21.4387 -9.49845 -0.339197 21.389 -9.35923 -0.382004 21.764 -8.98839 -0.3734 22.5877 -8.31598 -0.319036 23.8911 -7.26273 -0.205714 25.7132 -5.73744 -1.7848e-14 28.1028 -0.0572639 4.02528 22.7971 0.186845 4.72179 22.8829 0.222525 5.41374 22.934 0.156797 6.10576 22.9505 0.0516412 6.80255 22.932 -0.0516434 7.50886 22.8783 -0.122189 8.2296 22.7885 -0.134685 8.96988 22.6618 0.174367 8.82667 22.0687 0.338186 8.62047 21.7644 0.403285 8.30948 21.7559 0.397392 7.84953 22.0525 0.332379 7.19346 22.6662 0.205585 6.29036 23.6114 1.9015e-15 5.08479 24.906 -0.0980149 3.49917 22.706 -0.10843 4.30524 22.8501 -0.239747 5.07552 22.9421 -0.426573 5.81984 22.979 -0.627803 6.54591 22.9568 -0.81455 7.26101 22.8704 -0.964672 7.97287 22.7132 -1.05998 8.69033 22.4771 -0.862302 8.72519 21.9119 -0.74981 8.65266 21.6542 -0.682055 8.43483 21.7121 -0.633484 8.0297 22.0988 -0.59132 7.38981 22.8343 -0.554761 6.46004 23.9475 -0.535275 5.17428 25.4796 -0.203224 3.03752 22.6288 -0.417479 3.90819 22.8228 -0.69421 4.72748 22.9496 -0.992635 5.50475 23.0041 -1.28535 6.24762 22.9795 -1.55247 6.96379 22.8668 -1.77877 7.66214 22.6546 -1.95227 8.35362 22.3289 -1.86333 8.5197 21.7782 -1.80528 8.54617 21.5465 -1.74247 8.39849 21.6419 -1.65069 8.03739 22.0801 -1.51532 7.41665 22.8878 -1.33042 6.47942 24.1071 -1.09854 5.15207 25.8028 -0.356129 2.62357 22.5657 -0.73684 3.52546 22.8007 -1.14035 4.3693 22.9561 -1.54056 5.16177 23.0254 -1.91906 5.90892 22.9993 -2.26247 6.61767 22.8659 -2.5611 7.29693 22.61 -2.80822 7.95849 22.2129 -2.822 8.21512 21.6685 -2.81804 8.31096 21.4497 -2.76442 8.21435 21.5639 -2.63757 7.88897 22.0285 -2.42045 7.29096 22.8751 -2.1009 6.36391 24.1572 -1.67014 5.03029 25.9616 -0.546256 2.24683 22.5167 -1.06425 3.15357 22.7837 -1.57774 4.00084 22.9615 -2.06946 4.79207 23.0424 -2.52699 5.53112 23.0155 -2.9417 6.22354 22.8664 -3.30823 6.87749 22.5773 -3.62438 7.50467 22.126 -3.73173 7.81627 21.5832 -3.77855 7.9561 21.3695 -3.73561 7.89483 21.4914 -3.57947 7.59905 21.9672 -3.29021 7.02797 22.8321 -2.84891 6.12757 24.1483 -2.23404 4.82 26.0217 -0.766986 1.9007 22.4816 -1.39825 2.79016 22.7716 -2.006 3.62207 22.9655 -2.57845 4.3967 23.0548 -3.10726 5.11562 23.0274 -3.58733 5.78265 22.8674 -4.01681 6.40474 22.5551 -4.39727 6.9927 22.0657 -4.58609 7.32803 21.5223 -4.6777 7.4901 21.3097 -4.64471 7.45127 21.4337 -4.46321 7.18087 21.9126 -4.11015 6.64159 22.7843 -3.55964 5.78328 24.1173 -2.77696 4.53137 26.0316 -1.01426 1.58112 22.4606 -1.73799 2.43367 22.7644 -2.42481 3.23305 22.968 -3.06661 3.97669 23.0624 -3.65802 4.66388 23.0347 -4.19669 5.29659 22.8684 -4.68362 5.88013 22.5422 -5.12352 6.42385 22.0301 -5.37883 6.75547 21.4858 -5.50678 6.92115 21.273 -5.48101 6.89433 21.3968 -5.27663 6.64671 21.8757 -4.86722 6.14466 22.749 -4.22005 5.34304 24.089 -3.28768 4.17382 26.0246 -1.28587 1.28587 22.4536 -2.08311 2.08311 22.762 -2.83391 2.83391 22.9688 -3.533 3.533 23.0649 -4.17746 4.17746 23.0372 -4.76722 4.76722 22.8687 -5.30563 5.30563 22.538 -5.79999 5.79999 22.0184 -6.10389 6.10389 21.4737 -6.25734 6.25734 21.2606 -6.23423 6.23423 21.3841 -6.00821 6.00821 21.8627 -5.5493 5.5493 22.7362 -4.81826 4.81826 24.078 -3.75632 3.75632 26.0201 -1.58112 1.01426 22.4606 -2.43367 1.73799 22.7644 -3.23305 2.42481 22.968 -3.97669 3.06661 23.0624 -4.66388 3.65802 23.0347 -5.29659 4.19669 22.8684 -5.88013 4.68362 22.5422 -6.42385 5.12352 22.0301 -6.75547 5.37883 21.4858 -6.92115 5.50678 21.273 -6.89433 5.48101 21.3968 -6.64671 5.27663 21.8757 -6.14466 4.86722 22.749 -5.34304 4.22005 24.089 -4.17382 3.28768 26.0246 -1.9007 0.766986 22.4816 -2.79016 1.39825 22.7716 -3.62207 2.006 22.9655 -4.3967 2.57845 23.0548 -5.11562 3.10726 23.0274 -5.78265 3.58733 22.8674 -6.40474 4.01681 22.5551 -6.9927 4.39727 22.0657 -7.32803 4.58609 21.5223 -7.4901 4.6777 21.3097 -7.45127 4.64471 21.4337 -7.18087 4.46321 21.9126 -6.64159 4.11015 22.7843 -5.78328 3.55964 24.1173 -4.53137 2.77696 26.0316 -2.24683 0.546256 22.5167 -3.15357 1.06425 22.7837 -4.00084 1.57774 22.9615 -4.79207 2.06946 23.0424 -5.53112 2.52699 23.0155 -6.22354 2.9417 22.8664 -6.87749 3.30823 22.5773 -7.50467 3.62438 22.126 -7.81627 3.73173 21.5832 -7.9561 3.77855 21.3695 -7.89483 3.73561 21.4914 -7.59905 3.57947 21.9672 -7.02797 3.29021 22.8321 -6.12757 2.84891 24.1483 -4.82 2.23404 26.0217 -2.62357 0.356129 22.5657 -3.52546 0.73684 22.8007 -4.3693 1.14035 22.9561 -5.16177 1.54056 23.0254 -5.90892 1.91906 22.9993 -6.61767 2.26247 22.8659 -7.29693 2.5611 22.61 -7.95849 2.80822 22.2129 -8.21512 2.822 21.6685 -8.31096 2.81804 21.4497 -8.21435 2.76442 21.5639 -7.88897 2.63757 22.0285 -7.29096 2.42045 22.8751 -6.36391 2.1009 24.1572 -5.03029 1.67014 25.9616 -3.03752 0.203224 22.6288 -3.90819 0.417479 22.8228 -4.72748 0.69421 22.9496 -5.50475 0.992635 23.0041 -6.24762 1.28535 22.9795 -6.96379 1.55247 22.8668 -7.66214 1.77877 22.6546 -8.35362 1.95227 22.3289 -8.5197 1.86333 21.7782 -8.54617 1.80528 21.5465 -8.39849 1.74247 21.6419 -8.03739 1.65069 22.0801 -7.41665 1.51532 22.8878 -6.47942 1.33042 24.1071 -5.15207 1.09854 25.8028 -3.49917 0.0980149 22.706 -4.30524 0.10843 22.8501 -5.07552 0.239747 22.9421 -5.81984 0.426573 22.979 -6.54591 0.627803 22.9568 -7.26101 0.81455 22.8704 -7.97287 0.964672 22.7132 -8.69033 1.05998 22.4771 -8.72519 0.862302 21.9119 -8.65266 0.74981 21.6542 -8.43483 0.682055 21.7121 -8.0297 0.633484 22.0988 -7.38981 0.59132 22.8343 -6.46004 0.554761 23.9475 -5.17428 0.535275 25.4796 -4.02528 0.0572639 22.7971 -4.72179 -0.186845 22.8829 -5.41374 -0.222525 22.934 -6.10576 -0.156797 22.9505 -6.80255 -0.0516412 22.932 -7.50886 0.0516434 22.8783 -8.2296 0.122189 22.7885 -8.96988 0.134685 22.6618 -8.82667 -0.174367 22.0687 -8.62047 -0.338186 21.7644 -8.30948 -0.403285 21.7559 -7.84953 -0.397392 22.0525 -7.19346 -0.332379 22.6662 -6.29036 -0.205585 23.6114 -5.08479 -1.9015e-15 24.906 -0.147749 3.6569 23.7814 0.199883 4.3261 23.7214 0.27055 5.00117 23.6602 0.205623 5.68229 23.5978 0.0836238 6.36966 23.5341 -0.045186 7.06348 23.469 -0.144762 7.76401 23.4023 -0.186829 8.4715 23.334 0.167204 8.10935 22.6364 0.356919 7.73195 22.129 0.430306 7.31106 21.8137 0.418662 6.81774 21.6929 0.340113 6.22221 21.7696 0.201615 5.49365 22.0476 4.87025e-15 4.6 22.5315 -0.102833 3.11068 23.7259 -0.0458073 3.91116 23.7089 -0.159065 4.68157 23.6802 -0.353117 5.42898 23.6367 -0.574025 6.15715 23.5746 -0.785327 6.86884 23.4891 -0.960146 7.56695 23.3747 -1.07733 8.25514 23.2247 -0.805485 8.05457 22.5707 -0.643565 7.79477 22.1195 -0.551025 7.45159 21.8727 -0.50065 6.99888 21.8337 -0.475987 6.40806 22.0089 -0.469934 5.64734 22.4083 -0.484174 4.68031 23.0472 -0.135859 2.6424 23.6791 -0.30957 3.52181 23.6988 -0.581906 4.35359 23.6977 -0.894504 5.14463 23.6703 -1.20964 5.89864 23.6099 -1.50079 6.6187 23.5081 -1.74824 7.30871 23.3546 -1.93689 7.97428 23.1375 -1.74583 7.89591 22.5121 -1.61494 7.72589 22.0966 -1.51003 7.44333 21.8915 -1.40732 7.02489 21.9008 -1.29141 6.44394 22.1334 -1.15411 5.66893 22.6053 -0.993786 4.66079 23.3424 -0.226825 2.23205 23.6407 -0.587322 3.15179 23.6909 -0.997424 4.01677 23.7124 -1.41769 4.83091 23.6984 -1.82112 5.59611 23.6397 -2.1883 6.31454 23.5249 -2.5051 6.99001 23.3403 -2.76146 7.62895 23.0696 -2.64671 7.6383 22.4624 -2.54722 7.53422 22.0686 -2.4341 7.29829 21.8873 -2.28642 6.90975 21.9226 -2.0894 6.34425 22.1852 -1.83309 5.57158 22.6962 -1.51124 4.55168 23.4915 -0.36317 1.86709 23.6108 -0.876377 2.79683 23.6849 -1.40516 3.67088 23.7242 -1.92178 4.48929 23