<?xml version="1.0"?> 
<VTKFile type="StructuredGrid" version="0.1"> 
<StructuredGrid WholeExtent="0 14 0 14 0 29"> 
<Piece Extent="0 14 0 14 0 29"> 
<PointData>
<DataArray type="Float32" Name="efield" format="ascii" NumberOfComponents="3"> 
-2.89871e-10 1.8384 -4.21985 -0.132331 1.7081 -4.35109 -0.264505 1.57765 -4.46215 -0.396523 1.44704 -4.55301 -0.528385 1.31627 -4.62368 -0.66009 1.18535 -4.67416 -0.791639 1.05427 -4.70445 -0.923031 0.923031 -4.71454 -1.05427 0.791639 -4.70445 -1.18535 0.66009 -4.67416 -1.31627 0.528385 -4.62368 -1.44704 0.396523 -4.55301 -1.57765 0.264505 -4.46215 -1.7081 0.132331 -4.35109 -1.8384 7.41215e-10 -4.21985 0.132331 1.7081 -4.35109 -3.10711e-10 1.57751 -4.48261 -0.132197 1.44679 -4.59389 -0.264259 1.31593 -4.68493 -0.396188 1.18494 -4.75575 -0.527983 1.05382 -4.80633 -0.659643 0.922562 -4.83668 -0.791169 0.791169 -4.84679 -0.922562 0.659643 -4.83668 -1.05382 0.527983 -4.80633 -1.18494 0.396188 -4.75575 -1.31593 0.264259 -4.68493 -1.44679 0.132197 -4.59389 -1.57751 7.81669e-10 -4.48261 -1.7081 -0.132331 -4.35109 0.264505 1.57765 -4.46215 0.132197 1.44679 -4.59389 -3.28114e-10 1.31582 -4.70535 -0.132085 1.18474 -4.79656 -0.264058 1.05355 -4.86749 -0.39592 0.922249 -4.91816 -0.52767 0.790834 -4.94856 -0.659308 0.659308 -4.9587 -0.790834 0.52767 -4.94856 -0.922249 0.39592 -4.91816 -1.05355 0.264058 -4.86749 -1.18474 0.132085 -4.79656 -1.31582 8.16655e-10 -4.70535 -1.44679 -0.132197 -4.59389 -1.57765 -0.264505 -4.46215 0.396523 1.44704 -4.55301 0.264259 1.31593 -4.68493 0.132085 1.18474 -4.79656 -3.42069e-10 1.05346 -4.88789 -0.131996 0.922092 -4.95892 -0.263902 0.790633 -5.00966 -0.395719 0.659084 -5.0401 -0.527446 0.527446 -5.05025 -0.659084 0.395719 -5.0401 -0.790633 0.263902 -5.00966 -0.922092 0.131996 -4.95892 -1.05346 8.46178e-10 -4.88789 -1.18474 -0.132085 -4.79656 -1.31593 -0.264259 -4.68493 -1.44704 -0.396523 -4.55301 0.528385 1.31627 -4.62368 0.396188 1.18494 -4.75575 0.264058 1.05355 -4.86749 0.131996 0.922092 -4.95892 -3.52569e-10 0.790566 -5.03003 -0.131929 0.658973 -5.08083 -0.26379 0.527312 -5.1113 -0.395585 0.395585 -5.12146 -0.527312 0.26379 -5.1113 -0.658973 0.131929 -5.08083 -0.790566 8.70243e-10 -5.03003 -0.922092 -0.131996 -4.95892 -1.05355 -0.264058 -4.86749 -1.18494 -0.396188 -4.75575 -1.31627 -0.528385 -4.62368 0.66009 1.18535 -4.67416 0.527983 1.05382 -4.80633 0.39592 0.922249 -4.91816 0.263902 0.790633 -5.00966 0.131929 0.658973 -5.08083 -3.59603e-10 0.527268 -5.13166 -0.131884 0.395518 -5.16216 -0.263723 0.263723 -5.17233 -0.395518 0.131884 -5.16216 -0.527268 8.88854e-10 -5.13166 -0.658973 -0.131929 -5.08083 -0.790633 -0.263902 -5.00966 -0.922249 -0.39592 -4.91816 -1.05382 -0.527983 -4.80633 -1.18535 -0.66009 -4.67416 0.791639 1.05427 -4.70445 0.659643 0.922562 -4.83668 0.52767 0.790834 -4.94856 0.395719 0.659084 -5.0401 0.26379 0.527312 -5.1113 0.131884 0.395518 -5.16216 -3.63163e-10 0.263701 -5.19268 -0.131862 0.131862 -5.20285 -0.263701 9.02016e-10 -5.19268 -0.395518 -0.131884 -5.16216 -0.527312 -0.26379 -5.1113 -0.659084 -0.395719 -5.0401 -0.790834 -0.52767 -4.94856 -0.922562 -0.659643 -4.83668 -1.05427 -0.791639 -4.70445 0.923031 0.923031 -4.71454 0.791169 0.791169 -4.84679 0.659308 0.659308 -4.9587 0.527446 0.527446 -5.05025 0.395585 0.395585 -5.12146 0.263723 0.263723 -5.17233 0.131862 0.131862 -5.20285 -3.63241e-10 9.09734e-10 -5.21302 -0.131862 -0.131862 -5.20285 -0.263723 -0.263723 -5.17233 -0.395585 -0.395585 -5.12146 -0.527446 -0.527446 -5.05025 -0.659308 -0.659308 -4.9587 -0.791169 -0.791169 -4.84679 -0.923031 -0.923031 -4.71454 1.05427 0.791639 -4.70445 0.922562 0.659643 -4.83668 0.790834 0.52767 -4.94856 0.659084 0.395719 -5.0401 0.527312 0.26379 -5.1113 0.395518 0.131884 -5.16216 0.263701 9.02854e-10 -5.19268 0.131862 -0.131862 -5.20285 -3.64856e-10 -0.263701 -5.19268 -0.131884 -0.395518 -5.16216 -0.26379 -0.527312 -5.1113 -0.395719 -0.659084 -5.0401 -0.52767 -0.790834 -4.94856 -0.659643 -0.922562 -4.83668 -0.791639 -1.05427 -4.70445 1.18535 0.66009 -4.67416 1.05382 0.527983 -4.80633 0.922249 0.39592 -4.91816 0.790633 0.263902 -5.00966 0.658973 0.131929 -5.08083 0.527268 8.90083e-10 -5.13166 0.395518 -0.131884 -5.16216 0.263723 -0.263723 -5.17233 0.131884 -0.395518 -5.16216 -3.63351e-10 -0.527268 -5.13166 -0.131929 -0.658973 -5.08083 -0.263902 -0.790633 -5.00966 -0.39592 -0.922249 -4.91816 -0.527983 -1.05382 -4.80633 -0.66009 -1.18535 -4.67416 1.31627 0.528385 -4.62368 1.18494 0.396188 -4.75575 1.05355 0.264058 -4.86749 0.922092 0.131996 -4.95892 0.790566 8.71356e-10 -5.03003 0.658973 -0.131929 -5.08083 0.527312 -0.26379 -5.1113 0.395585 -0.395585 -5.12146 0.26379 -0.527312 -5.1113 0.131929 -0.658973 -5.08083 -3.58708e-10 -0.790566 -5.03003 -0.131996 -0.922092 -4.95892 -0.264058 -1.05355 -4.86749 -0.396188 -1.18494 -4.75575 -0.528385 -1.31627 -4.62368 1.44704 0.396523 -4.55301 1.31593 0.264259 -4.68493 1.18474 0.132085 -4.79656 1.05346 8.46608e-10 -4.88789 0.922092 -0.131996 -4.95892 0.790633 -0.263902 -5.00966 0.659084 -0.395719 -5.0401 0.527446 -0.527446 -5.05025 0.395719 -0.659084 -5.0401 0.263902 -0.790633 -5.00966 0.131996 -0.922092 -4.95892 -3.50914e-10 -1.05346 -4.88789 -0.132085 -1.18474 -4.79656 -0.264259 -1.31593 -4.68493 -0.396523 -1.44704 -4.55301 1.57765 0.264505 -4.46215 1.44679 0.132197 -4.59389 1.31582 8.15774e-10 -4.70535 1.18474 -0.132085 -4.79656 1.05355 -0.264058 -4.86749 0.922249 -0.39592 -4.91816 0.790834 -0.52767 -4.94856 0.659308 -0.659308 -4.9587 0.52767 -0.790834 -4.94856 0.39592 -0.922249 -4.91816 0.264058 -1.05355 -4.86749 0.132085 -1.18474 -4.79656 -3.39952e-10 -1.31582 -4.70535 -0.132197 -1.44679 -4.59389 -0.264505 -1.57765 -4.46215 1.7081 0.132331 -4.35109 1.57751 7.7879e-10 -4.48261 1.44679 -0.132197 -4.59389 1.31593 -0.264259 -4.68493 1.18494 -0.396188 -4.75575 1.05382 -0.527983 -4.80633 0.922562 -0.659643 -4.83668 0.791169 -0.791169 -4.84679 0.659643 -0.922562 -4.83668 0.527983 -1.05382 -4.80633 0.396188 -1.18494 -4.75575 0.264259 -1.31593 -4.68493 0.132197 -1.44679 -4.59389 -3.25808e-10 -1.57751 -4.48261 -0.132331 -1.7081 -4.35109 1.8384 7.3559e-10 -4.21985 1.7081 -0.132331 -4.35109 1.57765 -0.264505 -4.46215 1.44704 -0.396523 -4.55301 1.31627 -0.528385 -4.62368 1.18535 -0.66009 -4.67416 1.05427 -0.791639 -4.70445 0.923031 -0.923031 -4.71454 0.791639 -1.05427 -4.70445 0.66009 -1.18535 -4.67416 0.528385 -1.31627 -4.62368 0.396523 -1.44704 -4.55301 0.264505 -1.57765 -4.46215 0.132331 -1.7081 -4.35109 -3.08466e-10 -1.8384 -4.21985 -2.5995e-10 1.592 -3.81117 -0.116828 1.4814 -3.93069 -0.233177 1.37032 -4.03182 -0.349046 1.25876 -4.11456 -0.464437 1.14672 -4.17891 -0.579349 1.03421 -4.22488 -0.693782 0.921211 -4.25246 -0.807736 0.807736 -4.26166 -0.921211 0.693782 -4.25246 -1.03421 0.579349 -4.22488 -1.14672 0.464437 -4.17891 -1.25876 0.349046 -4.11456 -1.37032 0.233177 -4.03182 -1.4814 0.116828 -3.93069 -1.592 6.55244e-10 -3.81117 0.116828 1.4814 -3.93069 -2.78825e-10 1.36991 -4.05052 -0.116417 1.25801 -4.15192 -0.232424 1.1457 -4.23488 -0.34802 1.03298 -4.2994 -0.463206 0.919843 -4.34549 -0.577981 0.806299 -4.37314 -0.692345 0.692345 -4.38236 -0.806299 0.577981 -4.37314 -0.919843 0.463206 -4.34549 -1.03298 0.34802 -4.2994 -1.1457 0.232424 -4.23488 -1.25801 0.116417 -4.15192 -1.36991 6.93984e-10 -4.05052 -1.4814 -0.116828 -3.93069 0.233177 1.37032 -4.03182 0.116417 1.25801 -4.15192 -2.94714e-10 1.14536 -4.25354 -0.116075 1.03236 -4.33668 -0.231808 0.919022 -4.40135 -0.347199 0.805341 -4.44754 -0.462248 0.691319 -4.47526 -0.576954 0.576954 -4.48449 -0.691319 0.462248 -4.47526 -0.805341 0.347199 -4.44754 -0.919022 0.231808 -4.40135 -1.03236 0.116075 -4.33668 -1.14536 7.27484e-10 -4.25354 -1.25801 -0.116417 -4.15192 -1.37032 -0.233177 -4.03182 0.349046 1.25876 -4.11456 0.232424 1.1457 -4.23488 0.116075 1.03236 -4.33668 -3.07606e-10 0.918748 -4.41998 -0.115801 0.804862 -4.48476 -0.231329 0.690703 -4.53104 -0.346583 0.57627 -4.5588 -0.461564 0.461564 -4.56806 -0.57627 0.346583 -4.5588 -0.690703 0.231329 -4.53104 -0.804862 0.115801 -4.48476 -0.918748 7.55741e-10 -4.41998 -1.03236 -0.116075 -4.33668 -1.1457 -0.232424 -4.23488 -1.25876 -0.349046 -4.11456 0.464437 1.14672 -4.17891 0.34802 1.03298 -4.2994 0.231808 0.919022 -4.40135 0.115801 0.804862 -4.48476 -3.17492e-10 0.690498 -4.54964 -0.115596 0.575928 -4.59598 -0.230987 0.461153 -4.62379 -0.346173 0.346173 -4.63305 -0.461153 0.230987 -4.62379 -0.575928 0.115596 -4.59598 -0.690498 7.78747e-10 -4.54964 -0.804862 -0.115801 -4.48476 -0.919022 -0.231808 -4.40135 -1.03298 -0.34802 -4.2994 -1.14672 -0.464437 -4.17891 0.579349 1.03421 -4.22488 0.463206 0.919843 -4.34549 0.347199 0.805341 -4.44754 0.231329 0.690703 -4.53104 0.115596 0.575928 -4.59598 -3.24361e-10 0.461016 -4.64237 -0.115459 0.345967 -4.6702 -0.230782 0.230782 -4.67948 -0.345967 0.115459 -4.6702 -0.461016 7.96501e-10 -4.64237 -0.575928 -0.115596 -4.59598 -0.690703 -0.231329 -4.53104 -0.805341 -0.347199 -4.44754 -0.919843 -0.463206 -4.34549 -1.03421 -0.579349 -4.22488 0.693782 0.921211 -4.25246 0.577981 0.806299 -4.37314 0.462248 0.691319 -4.47526 0.346583 0.57627 -4.5588 0.230987 0.461153 -4.62379 0.115459 0.345967 -4.6702 -3.28204e-10 0.230713 -4.69805 -0.115391 0.115391 -4.70733 -0.230713 8.08996e-10 -4.69805 -0.345967 -0.115459 -4.6702 -0.461153 -0.230987 -4.62379 -0.57627 -0.346583 -4.5588 -0.691319 -0.462248 -4.47526 -0.806299 -0.577981 -4.37314 -0.921211 -0.693782 -4.25246 0.807736 0.807736 -4.26166 0.692345 0.692345 -4.38236 0.576954 0.576954 -4.48449 0.461564 0.461564 -4.56806 0.346173 0.346173 -4.63305 0.230782 0.230782 -4.67948 0.115391 0.115391 -4.70733 -3.29009e-10 8.16227e-10 -4.71662 -0.115391 -0.115391 -4.70733 -0.230782 -0.230782 -4.67948 -0.346173 -0.346173 -4.63305 -0.461564 -0.461564 -4.56806 -0.576954 -0.576954 -4.48449 -0.692345 -0.692345 -4.38236 -0.807736 -0.807736 -4.26166 0.921211 0.693782 -4.25246 0.806299 0.577981 -4.37314 0.691319 0.462248 -4.47526 0.57627 0.346583 -4.5588 0.461153 0.230987 -4.62379 0.345967 0.115459 -4.6702 0.230713 8.10578e-10 -4.69805 0.115391 -0.115391 -4.70733 -3.30409e-10 -0.230713 -4.69805 -0.115459 -0.345967 -4.6702 -0.230987 -0.461153 -4.62379 -0.346583 -0.57627 -4.5588 -0.462248 -0.691319 -4.47526 -0.577981 -0.806299 -4.37314 -0.693782 -0.921211 -4.25246 1.03421 0.579349 -4.22488 0.919843 0.463206 -4.34549 0.805341 0.347199 -4.44754 0.690703 0.231329 -4.53104 0.575928 0.115596 -4.59598 0.461016 7.99293e-10 -4.64237 0.345967 -0.115459 -4.6702 0.230782 -0.230782 -4.67948 0.115459 -0.345967 -4.6702 -3.29079e-10 -0.461016 -4.64237 -0.115596 -0.575928 -4.59598 -0.231329 -0.690703 -4.53104 -0.347199 -0.805341 -4.44754 -0.463206 -0.919843 -4.34549 -0.579349 -1.03421 -4.22488 1.14672 0.464437 -4.17891 1.03298 0.34802 -4.2994 0.919022 0.231808 -4.40135 0.804862 0.115801 -4.48476 0.690498 7.8233e-10 -4.54964 0.575928 -0.115596 -4.59598 0.461153 -0.230987 -4.62379 0.346173 -0.346173 -4.63305 0.230987 -0.461153 -4.62379 0.115596 -0.575928 -4.59598 -3.2501e-10 -0.690498 -4.54964 -0.115801 -0.804862 -4.48476 -0.231808 -0.919022 -4.40135 -0.34802 -1.03298 -4.2994 -0.464437 -1.14672 -4.17891 1.25876 0.349046 -4.11456 1.1457 0.232424 -4.23488 1.03236 0.116075 -4.33668 0.918748 7.59646e-10 -4.41998 0.804862 -0.115801 -4.48476 0.690703 -0.231329 -4.53104 0.57627 -0.346583 -4.5588 0.461564 -0.461564 -4.56806 0.346583 -0.57627 -4.5588 0.231329 -0.690703 -4.53104 0.115801 -0.804862 -4.48476 -3.18194e-10 -0.918748 -4.41998 -0.116075 -1.03236 -4.33668 -0.232424 -1.1457 -4.23488 -0.349046 -1.25876 -4.11456 1.37032 0.233177 -4.03182 1.25801 0.116417 -4.15192 1.14536 7.31196e-10 -4.25354 1.03236 -0.116075 -4.33668 0.919022 -0.231808 -4.40135 0.805341 -0.347199 -4.44754 0.691319 -0.462248 -4.47526 0.576954 -0.576954 -4.48449 0.462248 -0.691319 -4.47526 0.347199 -0.805341 -4.44754 0.231808 -0.919022 -4.40135 0.116075 -1.03236 -4.33668 -3.08624e-10 -1.14536 -4.25354 -0.116417 -1.25801 -4.15192 -0.233177 -1.37032 -4.03182 1.4814 0.116828 -3.93069 1.36991 6.96939e-10 -4.05052 1.25801 -0.116417 -4.15192 1.1457 -0.232424 -4.23488 1.03298 -0.34802 -4.2994 0.919843 -0.463206 -4.34549 0.806299 -0.577981 -4.37314 0.692345 -0.692345 -4.38236 0.577981 -0.806299 -4.37314 0.463206 -0.919843 -4.34549 0.34802 -1.03298 -4.2994 0.232424 -1.1457 -4.23488 0.116417 -1.25801 -4.15192 -2.96291e-10 -1.36991 -4.05052 -0.116828 -1.4814 -3.93069 1.592 6.56831e-10 -3.81117 1.4814 -0.116828 -3.93069 1.37032 -0.233177 -4.03182 1.25876 -0.349046 -4.11456 1.14672 -0.464437 -4.17891 1.03421 -0.579349 -4.22488 0.921211 -0.693782 -4.25246 0.807736 -0.807736 -4.26166 0.693782 -0.921211 -4.25246 0.579349 -1.03421 -4.22488 0.464437 -1.14672 -4.17891 0.349046 -1.25876 -4.11456 0.233177 -1.37032 -4.03182 0.116828 -1.4814 -3.93069 -2.81187e-10 -1.592 -3.81117 -2.32474e-10 1.36692 -3.4025 -0.102496 1.27414 -3.51028 -0.204245 1.18061 -3.60149 -0.305246 1.08634 -3.67611 -0.4055 0.991321 -3.73415 -0.505006 0.895553 -3.77561 -0.603764 0.799038 -3.80048 -0.701775 0.701775 -3.80877 -0.799038 0.603764 -3.80048 -0.895553 0.505006 -3.77561 -0.991321 0.4055 -3.73415 -1.08634 0.305246 -3.67611 -1.18061 0.204245 -3.60149 -1.27414 0.102496 -3.51028 -1.36692 5.76169e-10 -3.4025 0.102496 1.27414 -3.51028 -2.49469e-10 1.17997 -3.61844 -0.101856 1.08517 -3.70995 -0.20307 0.989719 -3.78482 -0.303644 0.893631 -3.84306 -0.403577 0.796902 -3.88465 -0.50287 0.699532 -3.90961 -0.601521 0.601521 -3.91793 -0.699532 0.50287 -3.90961 -0.796902 0.403577 -3.88465 -0.893631 0.303644 -3.84306 -0.989719 0.20307 -3.78482 -1.08517 0.101856 -3.70995 -1.17997 6.13158e-10 -3.61844 -1.27414 -0.102496 -3.51028 0.204245 1.18061 -3.60149 0.101856 1.08517 -3.70995 -2.6389e-10 0.989185 -3.80172 -0.101322 0.89267 -3.87681 -0.202109 0.79562 -3.93521 -0.302363 0.698037 -3.97692 -0.402082 0.599919 -4.00195 -0.501268 0.501268 -4.01029 -0.599919 0.402082 -4.00195 -0.698037 0.302363 -3.97692 -0.79562 0.202109 -3.93521 -0.89267 0.101322 -3.87681 -0.989185 6.45149e-10 -3.80172 -1.08517 -0.101856 -3.70995 -1.18061 -0.204245 -3.60149 0.305246 1.08634 -3.67611 0.20307 0.989719 -3.78482 0.101322 0.89267 -3.87681 -2.75728e-10 0.795193 -3.95207 -0.100894 0.697289 -4.01061 -0.201361 0.598958 -4.05242 -0.301401 0.5002 -4.0775 -0.401014 0.401014 -4.08587 -0.5002 0.301401 -4.0775 -0.598958 0.201361 -4.05242 -0.697289 0.100894 -4.01061 -0.795193 6.72129e-10 -3.95207 -0.89267 -0.101322 -3.87681 -0.989719 -0.20307 -3.78482 -1.08634 -0.305246 -3.67611 0.4055 0.991321 -3.73415 0.303644 0.893631 -3.84306 0.202109 0.79562 -3.93521 0.100894 0.697289 -4.01061 -2.8497e-10 0.598638 -4.06925 -0.100574 0.499666 -4.11113 -0.200827 0.400373 -4.13627 -0.300761 0.300761 -4.14464 -0.400373 0.200827 -4.13627 -0.499666 0.100574 -4.11113 -0.598638 6.94086e-10 -4.06925 -0.697289 -0.100894 -4.01061 -0.79562 -0.202109 -3.93521 -0.893631 -0.303644 -3.84306 -0.991321 -0.4055 -3.73415 0.505006 0.895553 -3.77561 0.403577 0.796902 -3.88465 0.302363 0.698037 -3.97692 0.201361 0.598958 -4.05242 0.100574 0.499666 -4.11113 -2.91607e-10 0.40016 -4.15308 -0.10036 0.30044 -4.17824 -0.200507 0.200507 -4.18663 -0.30044 0.10036 -4.17824 -0.40016 7.11007e-10 -4.15308 -0.499666 -0.100574 -4.11113 -0.598958 -0.201361 -4.05242 -0.698037 -0.302363 -3.97692 -0.796902 -0.403577 -3.88465 -0.895553 -0.505006 -3.77561 0.603764 0.799038 -3.80048 0.50287 0.699532 -3.90961 0.402082 0.599919 -4.00195 0.301401 0.5002 -4.0775 0.200827 0.400373 -4.13627 0.10036 0.30044 -4.17824 -2.95627e-10 0.2004 -4.20342 -0.100254 0.100254 -4.21182 -0.2004 7.2288e-10 -4.20342 -0.30044 -0.10036 -4.17824 -0.400373 -0.200827 -4.13627 -0.5002 -0.301401 -4.0775 -0.599919 -0.402082 -4.00195 -0.699532 -0.50287 -3.90961 -0.799038 -0.603764 -3.80048 0.701775 0.701775 -3.80877 0.601521 0.601521 -3.91793 0.501268 0.501268 -4.01029 0.401014 0.401014 -4.08587 0.300761 0.300761 -4.14464 0.200507 0.200507 -4.18663 0.100254 0.100254 -4.21182 -2.9702e-10 7.29692e-10 -4.22022 -0.100254 -0.100254 -4.21182 -0.200507 -0.200507 -4.18663 -0.300761 -0.300761 -4.14464 -0.401014 -0.401014 -4.08587 -0.501268 -0.501268 -4.01029 -0.601521 -0.601521 -3.91793 -0.701775 -0.701775 -3.80877 0.799038 0.603764 -3.80048 0.699532 0.50287 -3.90961 0.599919 0.402082 -4.00195 0.5002 0.301401 -4.0775 0.400373 0.200827 -4.13627 0.30044 0.10036 -4.17824 0.2004 7.25073e-10 -4.20342 0.100254 -0.100254 -4.21182 -2.98223e-10 -0.2004 -4.20342 -0.10036 -0.30044 -4.17824 -0.200827 -0.400373 -4.13627 -0.301401 -0.5002 -4.0775 -0.402082 -0.599919 -4.00195 -0.50287 -0.699532 -3.90961 -0.603764 -0.799038 -3.80048 0.895553 0.505006 -3.77561 0.796902 0.403577 -3.88465 0.698037 0.302363 -3.97692 0.598958 0.201361 -4.05242 0.499666 0.100574 -4.11113 0.40016 7.15089e-10 -4.15308 0.30044 -0.10036 -4.17824 0.200507 -0.200507 -4.18663 0.10036 -0.30044 -4.17824 -2.97053e-10 -0.40016 -4.15308 -0.100574 -0.499666 -4.11113 -0.201361 -0.598958 -4.05242 -0.302363 -0.698037 -3.97692 -0.403577 -0.796902 -3.88465 -0.505006 -0.895553 -3.77561 0.991321 0.4055 -3.73415 0.893631 0.303644 -3.84306 0.79562 0.202109 -3.93521 0.697289 0.100894 -4.01061 0.598638 6.99717e-10 -4.06925 0.499666 -0.100574 -4.11113 0.400373 -0.200827 -4.13627 0.300761 -0.300761 -4.14464 0.200827 -0.400373 -4.13627 0.100574 -0.499666 -4.11113 -2.93507e-10 -0.598638 -4.06925 -0.100894 -0.697289 -4.01061 -0.202109 -0.79562 -3.93521 -0.303644 -0.893631 -3.84306 -0.4055 -0.991321 -3.73415 1.08634 0.305246 -3.67611 0.989719 0.20307 -3.78482 0.89267 0.101322 -3.87681 0.795193 6.78932e-10 -3.95207 0.697289 -0.100894 -4.01061 0.598958 -0.201361 -4.05242 0.5002 -0.301401 -4.0775 0.401014 -0.401014 -4.08587 0.301401 -0.5002 -4.0775 0.201361 -0.598958 -4.05242 0.100894 -0.697289 -4.01061 -2.87584e-10 -0.795193 -3.95207 -0.101322 -0.89267 -3.87681 -0.20307 -0.989719 -3.78482 -0.305246 -1.08634 -3.67611 1.18061 0.204245 -3.60149 1.08517 0.101856 -3.70995 0.989185 6.5271e-10 -3.80172 0.89267 -0.101322 -3.87681 0.79562 -0.202109 -3.93521 0.698037 -0.302363 -3.97692 0.599919 -0.402082 -4.00195 0.501268 -0.501268 -4.01029 0.402082 -0.599919 -4.00195 0.302363 -0.698037 -3.97692 0.202109 -0.79562 -3.93521 0.101322 -0.89267 -3.87681 -2.79281e-10 -0.989185 -3.80172 -0.101856 -1.08517 -3.70995 -0.204245 -1.18061 -3.60149 1.27414 0.102496 -3.51028 1.17997 6.21027e-10 -3.61844 1.08517 -0.101856 -3.70995 0.989719 -0.20307 -3.78482 0.893631 -0.303644 -3.84306 0.796902 -0.403577 -3.88465 0.699532 -0.50287 -3.90961 0.601521 -0.601521 -3.91793 0.50287 -0.699532 -3.90961 0.403577 -0.796902 -3.88465 0.303644 -0.893631 -3.84306 0.20307 -0.989719 -3.78482 0.101856 -1.08517 -3.70995 -2.68596e-10 -1.17997 -3.61844 -0.102496 -1.27414 -3.51028 1.36692 5.83859e-10 -3.4025 1.27414 -0.102496 -3.51028 1.18061 -0.204245 -3.60149 1.08634 -0.305246 -3.67611 0.991321 -0.4055 -3.73415 0.895553 -0.505006 -3.77561 0.799038 -0.603764 -3.80048 0.701775 -0.701775 -3.80877 0.603764 -0.799038 -3.80048 0.505006 -0.895553 -3.77561 0.4055 -0.991321 -3.73415 0.305246 -1.08634 -3.67611 0.204245 -1.18061 -3.60149 0.102496 -1.27414 -3.51028 -2.55528e-10 -1.36692 -3.4025 -2.07441e-10 1.16314 -2.99382 -0.0893363 1.08631 -3.08988 -0.17771 1.00853 -3.17116 -0.265122 0.929774 -3.23766 -0.351572 0.85006 -3.28938 -0.437059 0.769385 -3.32633 -0.521584 0.687747 -3.3485 -0.605146 0.605146 -3.35588 -0.687747 0.521584 -3.3485 -0.769385 0.437059 -3.32633 -0.85006 0.351572 -3.28938 -0.929774 0.265122 -3.23766 -1.00853 0.17771 -3.17116 -1.08631 0.0893363 -3.08988 -1.16314 5.03991e-10 -2.99382 0.0893363 1.08631 -3.08988 -2.22641e-10 1.0077 -3.18635 -0.0885115 0.928262 -3.26798 -0.176198 0.847998 -3.33477 -0.26306 0.76691 -3.38671 -0.349097 0.684997 -3.42382 -0.434309 0.602259 -3.44608 -0.518697 0.518697 -3.4535 -0.602259 0.434309 -3.44608 -0.684997 0.349097 -3.42382 -0.76691 0.26306 -3.38671 -0.847998 0.176198 -3.33477 -0.928262 0.0885115 -3.26798 -1.0077 5.3919e-10 -3.18635 -1.08631 -0.0893363 -3.08988 0.17771 1.00853 -3.17116 0.0885115 0.928262 -3.26798 -2.35642e-10 0.847311 -3.3499 -0.0878242 0.765673 -3.41693 -0.174961 0.683348 -3.46907 -0.26141 0.600335 -3.5063 -0.347173 0.516635 -3.52865 -0.432247 0.432247 -3.53609 -0.516635 0.347173 -3.52865 -0.600335 0.26141 -3.5063 -0.683348 0.174961 -3.46907 -0.765673 0.0878242 -3.41693 -0.847311 5.69647e-10 -3.3499 -0.928262 -0.0885115 -3.26798 -1.00853 -0.17771 -3.17116 0.265122 0.929774 -3.23766 0.176198 0.847998 -3.33477 0.0878242 0.765673 -3.41693 -2.46434e-10 0.682798 -3.48416 -0.0872743 0.599373 -3.53645 -0.173999 0.515398 -3.57379 -0.260173 0.430873 -3.5962 -0.345798 0.345798 -3.60367 -0.430873 0.260173 -3.5962 -0.515398 0.173999 -3.57379 -0.599373 0.0872743 -3.53645 -0.682798 5.95343e-10 -3.48416 -0.765673 -0.0878242 -3.41693 -0.847998 -0.176198 -3.33477 -0.929774 -0.265122 -3.23766 0.351572 0.85006 -3.28938 0.26306 0.76691 -3.38671 0.174961 0.683348 -3.46907 0.0872743 0.599373 -3.53645 -2.55003e-10 0.514985 -3.58885 -0.0868619 0.430185 -3.62629 -0.173311 0.344973 -3.64875 -0.259348 0.259348 -3.65623 -0.344973 0.173311 -3.64875 -0.430185 0.0868619 -3.62629 -0.514985 6.16259e-10 -3.58885 -0.599373 -0.0872743 -3.53645 -0.683348 -0.174961 -3.46907 -0.76691 -0.26306 -3.38671 -0.85006 -0.351572 -3.28938 0.437059 0.769385 -3.32633 0.349097 0.684997 -3.42382 0.26141 0.600335 -3.5063 0.173999 0.515398 -3.57379 0.0868619 0.430185 -3.62629 -2.61341e-10 0.344698 -3.66378 -0.0865869 0.258936 -3.68628 -0.172899 0.172899 -3.69378 -0.258936 0.0865869 -3.68628 -0.344698 6.32374e-10 -3.66378 -0.430185 -0.0868619 -3.62629 -0.515398 -0.173999 -3.57379 -0.600335 -0.26141 -3.5063 -0.684997 -0.349097 -3.42382 -0.769385 -0.437059 -3.32633 0.521584 0.687747 -3.3485 0.434309 0.602259 -3.44608 0.347173 0.516635 -3.52865 0.260173 0.430873 -3.5962 0.173311 0.344973 -3.64875 0.0865869 0.258936 -3.68628 -2.65434e-10 0.172761 -3.7088 -0.0864495 0.0864495 -3.7163 -0.172761 6.4367e-10 -3.7088 -0.258936 -0.0865869 -3.68628 -0.344973 -0.173311 -3.64875 -0.430873 -0.260173 -3.5962 -0.516635 -0.347173 -3.52865 -0.602259 -0.434309 -3.44608 -0.687747 -0.521584 -3.3485 0.605146 0.605146 -3.35588 0.518697 0.518697 -3.4535 0.432247 0.432247 -3.53609 0.345798 0.345798 -3.60367 0.259348 0.259348 -3.65623 0.172899 0.172899 -3.69378 0.0864495 0.0864495 -3.7163 -2.67272e-10 6.50127e-10 -3.72381 -0.0864495 -0.0864495 -3.7163 -0.172899 -0.172899 -3.69378 -0.259348 -0.259348 -3.65623 -0.345798 -0.345798 -3.60367 -0.432247 -0.432247 -3.53609 -0.518697 -0.518697 -3.4535 -0.605146 -0.605146 -3.35588 0.687747 0.521584 -3.3485 0.602259 0.434309 -3.44608 0.516635 0.347173 -3.52865 0.430873 0.260173 -3.5962 0.344973 0.173311 -3.64875 0.258936 0.0865869 -3.68628 0.172761 6.46339e-10 -3.7088 0.0864495 -0.0864495 -3.7163 -2.68297e-10 -0.172761 -3.7088 -0.0865869 -0.258936 -3.68628 -0.173311 -0.344973 -3.64875 -0.260173 -0.430873 -3.5962 -0.347173 -0.516635 -3.52865 -0.434309 -0.602259 -3.44608 -0.521584 -0.687747 -3.3485 0.769385 0.437059 -3.32633 0.684997 0.349097 -3.42382 0.600335 0.26141 -3.5063 0.515398 0.173999 -3.57379 0.430185 0.0868619 -3.62629 0.344698 6.37471e-10 -3.66378 0.258936 -0.0865869 -3.68628 0.172899 -0.172899 -3.69378 0.0865869 -0.258936 -3.68628 -2.67272e-10 -0.344698 -3.66378 -0.0868619 -0.430185 -3.62629 -0.173999 -0.515398 -3.57379 -0.26141 -0.600335 -3.5063 -0.349097 -0.684997 -3.42382 -0.437059 -0.769385 -3.32633 0.85006 0.351572 -3.28938 0.76691 0.26306 -3.38671 0.683348 0.174961 -3.46907 0.599373 0.0872743 -3.53645 0.514985 6.23516e-10 -3.58885 0.430185 -0.0868619 -3.62629 0.344973 -0.173311 -3.64875 0.259348 -0.259348 -3.65623 0.173311 -0.344973 -3.64875 0.0868619 -0.430185 -3.62629 -2.64199e-10 -0.514985 -3.58885 -0.0872743 -0.599373 -3.53645 -0.174961 -0.683348 -3.46907 -0.26306 -0.76691 -3.38671 -0.351572 -0.85006 -3.28938 0.929774 0.265122 -3.23766 0.847998 0.176198 -3.33477 0.765673 0.0878242 -3.41693 0.682798 6.04466e-10 -3.48416 0.599373 -0.0872743 -3.53645 0.515398 -0.173999 -3.57379 0.430873 -0.260173 -3.5962 0.345798 -0.345798 -3.60367 0.260173 -0.430873 -3.5962 0.173999 -0.515398 -3.57379 0.0872743 -0.599373 -3.53645 -2.59082e-10 -0.682798 -3.48416 -0.0878242 -0.765673 -3.41693 -0.176198 -0.847998 -3.33477 -0.265122 -0.929774 -3.23766 1.00853 0.17771 -3.17116 0.928262 0.0885115 -3.26798 0.847311 5.80315e-10 -3.3499 0.765673 -0.0878242 -3.41693 0.683348 -0.174961 -3.46907 0.600335 -0.26141 -3.5063 0.516635 -0.347173 -3.52865 0.432247 -0.432247 -3.53609 0.347173 -0.516635 -3.52865 0.26141 -0.600335 -3.5063 0.174961 -0.683348 -3.46907 0.0878242 -0.765673 -3.41693 -2.51922e-10 -0.847311 -3.3499 -0.0885115 -0.928262 -3.26798 -0.17771 -1.00853 -3.17116 1.08631 0.0893363 -3.08988 1.0077 5.51054e-10 -3.18635 0.928262 -0.0885115 -3.26798 0.847998 -0.176198 -3.33477 0.76691 -0.26306 -3.38671 0.684997 -0.349097 -3.42382 0.602259 -0.434309 -3.44608 0.518697 -0.518697 -3.4535 0.434309 -0.602259 -3.44608 0.349097 -0.684997 -3.42382 0.26306 -0.76691 -3.38671 0.176198 -0.847998 -3.33477 0.0885115 -0.928262 -3.26798 -2.42723e-10 -1.0077 -3.18635 -0.0893363 -1.08631 -3.08988 1.16314 5.16675e-10 -2.99382 1.08631 -0.0893363 -3.08988 1.00853 -0.17771 -3.17116 0.929774 -0.265122 -3.23766 0.85006 -0.351572 -3.28938 0.769385 -0.437059 -3.32633 0.687747 -0.521584 -3.3485 0.605146 -0.605146 -3.35588 0.521584 -0.687747 -3.3485 0.437059 -0.769385 -3.32633 0.351572 -0.85006 -3.28938 0.265122 -0.929774 -3.23766 0.17771 -1.00853 -3.17116 0.0893363 -1.08631 -3.08988 -2.31487e-10 -1.16314 -2.99382 -1.84853e-10 0.980673 -2.58515 -0.0773479 0.917925 -2.66947 -0.153573 0.854054 -2.74083 -0.228675 0.789059 -2.79921 -0.302653 0.722942 -2.84462 -0.375509 0.655701 -2.87705 -0.447242 0.587338 -2.89651 -0.517851 0.517851 -2.903 -0.587338 0.447242 -2.89651 -0.655701 0.375509 -2.87705 -0.722942 0.302653 -2.84462 -0.789059 0.228675 -2.79921 -0.854054 0.153573 -2.74083 -0.917925 0.0773479 -2.66947 -0.980673 4.3871e-10 -2.58515 0.0773479 0.917925 -2.66947 -1.98343e-10 0.853091 -2.75426 -0.0763853 0.787294 -2.82601 -0.151808 0.720535 -2.88471 -0.226268 0.652814 -2.93037 -0.299765 0.584129 -2.96298 -0.3723 0.514482 -2.98254 -0.443873 0.443873 -2.98907 -0.514482 0.3723 -2.98254 -0.584129 0.299765 -2.96298 -0.652814 0.226268 -2.93037 -0.720535 0.151808 -2.88471 -0.787294 0.0763853 -2.82601 -0.853091 4.72081e-10 -2.75426 -0.917925 -0.0773479 -2.66947 0.153573 0.854054 -2.74083 0.0763853 0.787294 -2.82601 -2.09971e-10 0.719733 -2.89809 -0.0755831 0.65137 -2.95706 -0.150364 0.582204 -3.00292 -0.224343 0.512236 -3.03568 -0.297519 0.441466 -3.05534 -0.369894 0.369894 -3.06189 -0.441466 0.297519 -3.05534 -0.512236 0.224343 -3.03568 -0.582204 0.150364 -3.00292 -0.65137 0.0755831 -2.95706 -0.719733 5.00981e-10 -2.89809 -0.787294 -0.0763853 -2.82601 -0.854054 -0.153573 -2.74083 0.228675 0.789059 -2.79921 0.151808 0.720535 -2.88471 0.0755831 0.65137 -2.95706 -2.19724e-10 0.581562 -3.01625 -0.0749414 0.511113 -3.06229 -0.149241 0.440022 -3.09517 -0.222899 0.368289 -3.1149 -0.295915 0.295915 -3.12148 -0.368289 0.222899 -3.1149 -0.440022 0.149241 -3.09517 -0.511113 0.0749414 -3.06229 -0.581562 5.25384e-10 -3.01625 -0.65137 -0.0755831 -2.95706 -0.720535 -0.151808 -2.88471 -0.789059 -0.228675 -2.79921 0.302653 0.722942 -2.84462 0.226268 0.652814 -2.93037 0.150364 0.582204 -3.00292 0.0749414 0.511113 -3.06229 -2.27592e-10 0.439541 -3.10846 -0.0744601 0.367487 -3.14144 -0.148439 0.294952 -3.16123 -0.221936 0.221936 -3.16783 -0.294952 0.148439 -3.16123 -0.367487 0.0744601 -3.14144 -0.439541 5.45266e-10 -3.10846 -0.511113 -0.0749414 -3.06229 -0.582204 -0.150364 -3.00292 -0.652814 -0.226268 -2.93037 -0.722942 -0.302653 -2.84462 0.375509 0.655701 -2.87705 0.299765 0.584129 -2.96298 0.224343 0.512236 -3.03568 0.149241 0.440022 -3.09517 0.0744601 0.367487 -3.14144 -2.33562e-10 0.294632 -3.17449 -0.0741392 0.221455 -3.19432 -0.147958 0.147958 -3.20093 -0.221455 0.0741392 -3.19432 -0.294632 5.60601e-10 -3.17449 -0.367487 -0.0744601 -3.14144 -0.440022 -0.149241 -3.09517 -0.512236 -0.224343 -3.03568 -0.584129 -0.299765 -2.96298 -0.655701 -0.375509 -2.87705 0.447242 0.587338 -2.89651 0.3723 0.514482 -2.98254 0.297519 0.441466 -3.05534 0.222899 0.368289 -3.1149 0.148439 0.294952 -3.16123 0.0741392 0.221455 -3.19432 -2.37624e-10 0.147797 -3.21417 -0.0739788 0.0739788 -3.22079 -0.147797 5.71366e-10 -3.21417 -0.221455 -0.0741392 -3.19432 -0.294952 -0.148439 -3.16123 -0.368289 -0.222899 -3.1149 -0.441466 -0.297519 -3.05534 -0.514482 -0.3723 -2.98254 -0.587338 -0.447242 -2.89651 0.517851 0.517851 -2.903 0.443873 0.443873 -2.98907 0.369894 0.369894 -3.06189 0.295915 0.295915 -3.12148 0.221936 0.221936 -3.16783 0.147958 0.147958 -3.20093 0.0739788 0.0739788 -3.22079 -2.39767e-10 5.77533e-10 -3.22741 -0.0739788 -0.0739788 -3.22079 -0.147958 -0.147958 -3.20093 -0.221936 -0.221936 -3.16783 -0.295915 -0.295915 -3.12148 -0.369894 -0.369894 -3.06189 -0.443873 -0.443873 -2.98907 -0.517851 -0.517851 -2.903 0.587338 0.447242 -2.89651 0.514482 0.3723 -2.98254 0.441466 0.297519 -3.05534 0.368289 0.222899 -3.1149 0.294952 0.148439 -3.16123 0.221455 0.0741392 -3.19432 0.147797 5.74375e-10 -3.21417 0.0739788 -0.0739788 -3.22079 -2.40632e-10 -0.147797 -3.21417 -0.0741392 -0.221455 -3.19432 -0.148439 -0.294952 -3.16123 -0.222899 -0.368289 -3.1149 -0.297519 -0.441466 -3.05534 -0.3723 -0.514482 -2.98254 -0.447242 -0.587338 -2.89651 0.655701 0.375509 -2.87705 0.584129 0.299765 -2.96298 0.512236 0.224343 -3.03568 0.440022 0.149241 -3.09517 0.367487 0.0744601 -3.14144 0.294632 5.66437e-10 -3.17449 0.221455 -0.0741392 -3.19432 0.147958 -0.147958 -3.20093 0.0741392 -0.221455 -3.19432 -2.39736e-10 -0.294632 -3.17449 -0.0744601 -0.367487 -3.14144 -0.149241 -0.440022 -3.09517 -0.224343 -0.512236 -3.03568 -0.299765 -0.584129 -2.96298 -0.375509 -0.655701 -2.87705 0.722942 0.302653 -2.84462 0.652814 0.226268 -2.93037 0.582204 0.150364 -3.00292 0.511113 0.0749414 -3.06229 0.439541 5.53727e-10 -3.10846 0.367487 -0.0744601 -3.14144 0.294952 -0.148439 -3.16123 0.221936 -0.221936 -3.16783 0.148439 -0.294952 -3.16123 0.0744601 -0.367487 -3.14144 -2.37086e-10 -0.439541 -3.10846 -0.0749414 -0.511113 -3.06229 -0.150364 -0.582204 -3.00292 -0.226268 -0.652814 -2.93037 -0.302653 -0.722942 -2.84462 0.789059 0.228675 -2.79921 0.72