<?xml version="1.0"?> 
<VTKFile type="StructuredGrid" version="0.1"> 
<StructuredGrid WholeExtent="0 29 0 29 0 29"> 
<Piece Extent="0 29 0 29 0 29"> 
<PointData>
<DataArray type="Float32" Name="efield" format="ascii" NumberOfComponents="3"> 
-2.33402 20.2743 3.98009 -1.91226 20.6297 4.86848 -1.52386 20.9851 5.58522 -1.16197 21.3405 6.13297 -0.821198 21.6959 6.51354 -0.497197 22.0513 6.72793 -0.186457 22.4067 6.77631 0.113901 22.7621 6.65799 0.406257 23.1175 6.37143 0.692597 23.4729 5.91417 0.97459 23.8283 5.28281 1.25365 24.1836 4.4729 1.53098 24.539 3.47891 1.80762 24.8944 2.29408 2.08445 25.2498 0.910337 2.00888 26.6721 -0.424514 1.60461 29.1613 -1.19598 1.23462 31.6505 -1.46222 0.900854 34.1397 -1.18783 0.60503 36.6289 -0.331915 0.348668 39.118 1.15289 0.133122 41.6072 3.32145 -0.0404011 44.0964 6.23747 -0.170821 46.5856 9.97517 -0.257167 49.0748 14.6213 -0.298567 51.564 20.2777 -0.294231 54.0532 27.0647 -0.243446 56.5424 35.1249 -0.145565 59.0315 44.6287 -3.44963e-14 61.5207 55.7812 -2.85467 19.5577 3.85622 -2.53349 19.9228 4.80356 -2.23485 20.2856 5.57161 -1.95409 20.6463 6.16348 -1.68744 21.0051 6.58137 -1.43187 21.3623 6.82659 -1.18484 21.718 6.89956 -0.9443 22.0723 6.79979 -0.708493 22.4253 6.52587 -0.475961 22.7772 6.07541 -0.245464 23.1279 5.445 -0.0159443 23.4777 4.63012 0.213505 23.8264 3.62509 0.443666 24.1742 2.42291 0.675215 24.5212 1.01516 0.508034 25.9589 -0.345887 -0.0302015 28.4847 -1.14263 -0.52834 31.0059 -1.43744 -0.984987 33.5227 -1.19536 -1.39892 36.035 -0.375771 -1.76905 38.543 1.06849 -2.09444 41.0468 3.19232 -2.37424 43.5463 6.05973 -2.60771 46.0418 9.74563 -2.79419 48.5331 14.338 -2.93309 51.0203 19.9406 -3.0239 53.5036 26.6767 -3.06616 55.9828 34.6933 -3.05946 58.4582 44.1671 -3.00343 60.9295 55.3123 -3.42785 18.8936 3.7412 -3.1892 19.2609 4.74336 -2.9655 19.6245 5.5591 -2.75349 19.9846 6.19193 -2.55052 20.3418 6.64444 -2.35441 20.6961 6.91825 -2.16334 21.048 7.01404 -1.9758 21.3974 6.93152 -1.7905 21.7447 6.66941 -1.60637 22.0899 6.2254 -1.42247 22.4331 5.5961 -1.23802 22.7745 4.77694 -1.05234 23.1142 3.7621 -0.864843 23.4521 2.54438 -0.675009 23.7884 1.11503 -0.930052 25.2316 -0.27019 -1.59926 27.7763 -1.09124 -2.22392 30.3121 -1.41395 -2.80305 32.8393 -1.20384 -3.33585 35.3581 -0.420729 -3.82159 37.8684 0.982244 -4.25966 40.3705 3.05983 -4.64951 42.8643 5.87613 -4.99069 45.3501 9.50649 -5.28281 47.8279 14.0398 -5.52552 50.2977 19.5814 -5.71853 52.7596 26.2569 -5.86161 55.2136 34.2173 -5.95456 57.6599 43.6449 -5.99722 60.0984 54.7623 -4.03696 18.2655 3.63503 -3.86732 18.6299 4.68788 -3.70718 18.9897 5.54764 -3.55423 19.3454 6.21827 -3.40657 19.6972 6.7027 -3.26261 20.0454 7.00287 -3.12104 20.3904 7.1197 -2.98074 20.7322 7.05311 -2.84076 21.0712 6.80196 -2.70032 21.4074 6.36402 -2.55871 21.7409 5.73593 -2.41535 22.072 4.91309 -2.26972 22.4006 3.88957 -2.1214 22.7269 2.65798 -1.97 23.051 1.20932 -2.30913 24.4912 -0.198027 -3.10584 27.0395 -1.04209 -3.85465 29.5752 -1.39151 -4.55495 32.0983 -1.21236 -5.20625 34.609 -0.464961 -5.80811 37.1075 0.897137 -6.3602 39.5939 2.92841 -6.86222 42.0683 5.6929 -7.31396 44.5307 9.26615 -7.71523 46.9814 13.7377 -8.06591 49.4204 19.2141 -8.36591 51.8478 25.8231 -8.61517 54.2635 33.719 -8.81368 56.6678 43.0891 -8.96143 59.0607 54.1636 -4.67018 17.6614 3.5377 -4.55917 18.0196 4.63708 -4.45366 18.3726 5.53722 -4.35201 18.7208 6.24247 -4.25283 19.0647 6.75614 -4.15498 19.4044 7.08043 -4.05748 19.7403 7.21652 -3.95952 20.0725 7.16452 -3.86039 20.4012 6.92345 -3.75952 20.7266 6.49116 -3.65639 21.0489 5.86434 -3.55055 21.3681 5.03835 -3.44165 21.6843 4.00719 -3.32935 21.9976 2.76331 -3.21337 22.3082 1.29745 -3.63287 23.7382 -0.129957 -4.55328 26.2773 -0.995484 -5.42337 28.8 -1.37005 -6.24283 31.3065 -1.22033 -7.0114 33.7969 -0.507178 -7.72889 36.2713 0.815375 -8.39518 38.73 2.80144 -9.0102 41.1731 5.51487 -9.5739 43.6006 9.03125 -10.0863 46.0127 13.4405 -10.5474 48.4095 18.8502 -10.9574 50.791 25.3899 -11.3162 53.1574 33.2164 -11.6241 55.5087 42.5219 -11.8812 57.845 53.5433 -5.31892 17.0729 3.44922 -5.25837 17.4224 4.59095 -5.20036 17.7663 5.5278 -5.1437 18.1051 6.26452 -5.08738 18.4391 6.80471 -5.03056 18.7686 7.1509 -4.97254 19.0937 7.30447 -4.91271 19.4148 7.26574 -4.85057 19.7319 7.03385 -4.78567 20.0452 6.60678 -4.71765 20.3549 5.98122 -4.64618 20.661 5.15256 -4.571 20.9638 4.11471 -4.49186 21.2631 2.85999 -4.40858 21.5593 1.37895 -4.90483 22.9731 -0.066493 -5.94495 25.4918 -0.951754 -6.93311 27.9906 -1.34964 -7.86921 30.4697 -1.22741 -8.75319 32.9291 -0.546498 -9.58506 35.3691 0.738566 -10.3649 37.7898 2.68147 -11.0927 40.1914 5.34576 -11.7687 42.574 8.80697 -12.393 44.9376 13.1553 -12.9657 47.2825 18.4989 -13.4872 49.6087 24.9689 -13.9575 51.9162 32.7245 -14.3771 54.2053 41.9617 -14.746 56.476 52.9238 -5.97682 16.4935 3.36959 -5.96019 16.8326 4.54947 -5.94388 17.1659 5.51937 -5.92701 17.4938 6.28438 -5.90886 17.8165 6.84843 -5.88881 18.1344 7.21428 -5.86635 18.4475 7.38357 -5.84104 18.7563 7.35677 -5.81251 19.0607 7.13316 -5.78044 19.3609 6.71083 -5.74456 19.6571 6.08651 -5.70466 19.9493 5.25559 -5.66053 20.2377 4.21193 -5.61201 20.5224 2.94774 -5.55896 20.8034 1.45338 -6.12845 22.1958 -0.00809578 -7.28421 24.6846 -0.911249 -8.387 27.1501 -1.33042 -9.43688 29.5924 -1.23345 -10.434 32.0118 -0.582343 -11.3784 34.4083 0.667855 -12.2704 36.7823 2.57037 -13.1101 39.1337 5.18841 -13.8978 41.4627 8.59734 -14.6338 43.7696 12.8874 -15.3184 46.0544 18.1675 -15.9518 48.3171 24.5696 -16.5344 50.558 32.2552 -17.0665 52.7771 41.4236 -17.5486 54.9746 52.3237 -6.63907 15.9185 3.29881 -6.66106 16.2459 4.51263 -6.68168 16.5673 5.51191 -6.70029 16.8831 6.30206 -6.71636 17.1935 6.88728 -6.72946 17.4988 7.27059 -6.73921 17.799 7.45382 -6.7453 18.0945 7.43761 -6.74746 18.3854 7.22138 -6.74547 18.6717 6.80329 -6.73914 18.9537 6.18015 -6.72832 19.2314 5.34734 -6.71287 19.5049 4.29869 -6.69268 19.7743 3.0263 -6.66767 20.0396 1.52038 -7.30707 21.4062 0.0448219 -8.57436 23.8567 -0.874302 -9.7882 26.2807 -1.31259 -10.9488 28.6783 -1.23843 -12.0564 31.0497 -0.614364 -13.1112 33.395 0.604037 -14.1135 35.7146 2.46954 -15.0636 38.0084 5.04498 -15.962 40.2767 8.40549 -16.8088 42.5197 12.6414 -17.6046 44.7374 17.8618 -18.3496 46.93 24.1997 -19.0443 49.0976 31.8183 -19.6892 51.2404 40.92 -20.2845 53.3584 51.7584 -7.30201 15.3442 3.23687 -7.35828 15.6589 4.48043 -7.41187 15.9675 5.50542 -7.46234 16.2703 6.31755 -7.50932 16.5675 6.92127 -7.55248 16.8594 7.31983 -7.59157 17.146 7.51523 -7.62637 17.4276 7.50828 -7.65669 17.7042 7.29852 -7.68238 17.9761 6.88417 -7.70331 18.2432 6.26212 -7.71939 18.5058 5.42774 -7.73054 18.7639 4.37484 -7.73667 19.0176 3.09544 -7.73775 19.2669 1.57964 -8.44389 20.6037 0.0918977 -9.81862 23.0088 -0.84123 -11.1399 25.3841 -1.29636 -12.408 27.73 -1.24239 -13.6232 30.0465 -0.64237 -14.7858 32.334 0.547643 -15.8964 34.5926 2.37996 -16.9551 36.8226 4.91706 -17.9625 39.0239 8.2338 -18.9188 41.197 12.4204 -19.8247 43.3418 17.5864 -20.6804 45.4585 23.8653 -21.4865 47.5474 31.4218 -22.2434 49.6085 40.4608 -22.9515 51.642 51.2403 -7.96285 14.7678 3.18379 -8.04979 15.069 4.45284 -8.13306 15.364 5.49986 -8.21235 15.6531 6.33082 -8.2874 15.9364 6.9504 -8.358 16.2141 7.362 -8.42397 16.4864 7.56783 -8.48516 16.7535 7.56881 -8.54144 17.0154 7.36459 -8.59274 17.2723 6.95347 -8.63895 17.5242 6.33239 -8.68004 17.7713 5.49673 -8.71594 18.0136 4.44028 -8.74664 18.2512 3.15501 -8.7721 18.4842 1.63089 -9.54195 19.7879 0.132818 -11.0201 22.141 -0.812321 -12.4451 24.4614 -1.28195 -13.8174 26.7494 -1.24544 -15.1373 29.0051 -0.666284 -16.4052 31.229 0.499015 -17.6215 33.421 2.30235 -18.7867 35.5815 4.80583 -19.9012 37.7106 8.08408 -20.9654 39.8086 12.2272 -21.9798 41.8756 17.3448 -22.9449 43.9118 23.5711 -23.8611 45.9173 31.0719 -24.729 47.8924 40.0543 -25.549 49.8373 50.7796 -8.61946 14.1871 3.13955 -8.73406 14.4741 4.42986 -8.84423 14.7548 5.49525 -8.94978 15.0295 6.3419 -9.05052 15.2982 6.97466 -9.14631 15.5613 7.39713 -9.23705 15.8188 7.61163 -9.32263 16.0708 7.61921 -9.403 16.3174 7.41961 -9.47809 16.5589 7.0112 -9.54787 16.7951 6.39095 -9.61231 17.0263 5.55427 -9.67139 17.2525 4.49493 -9.7251 17.4738 3.20485 -9.77346 17.6902 1.67391 -10.6042 18.9577 0.167317 -12.1818 21.2531 -0.787828 -13.7069 23.513 -1.26958 -15.1801 25.7377 -1.24771 -16.6016 27.9275 -0.6861 -17.972 30.0825 0.458355 -19.2916 32.203 2.23718 -20.5609 34.2894 4.71216 -21.7804 36.3417 7.95766 -22.9505 38.3602 12.0637 -24.0718 40.3452 17.14 -25.1446 42.2968 23.321 -26.1695 44.2152 30.7737 -27.147 46.1007 39.7067 -28.0776 47.9535 50.3845 -9.2702 13.6006 3.10416 -9.40996 13.8726 4.41149 -9.54471 14.1383 5.49157 -9.67433 14.3979 6.35076 -9.79872 14.6516 6.99406 -9.9178 14.8994 7.42522 -10.0315 15.1414 7.64665 -10.1398 15.3779 7.65951 -10.2426 15.6089 7.4636 -10.3399 15.8344 7.05736 -10.4318 16.0546 6.4378 -10.5182 16.2696 5.60033 -10.5991 16.4793 4.53872 -10.6745 16.684 3.24485 -10.7445 16.8836 1.70854 -11.6334 18.1121 0.195175 -13.3065 20.3447 -0.767967 -14.9282 22.5391 -1.25944 -16.4988 24.6956 -1.24933 -18.0189 26.8147 -0.701854 -19.4889 28.8964 0.425774 -20.9092 30.9411 2.18477 -22.2802 32.9491 4.63664 -23.6025 34.9206 7.85554 -24.8765 36.8559 11.9314 -26.1026 38.7552 16.9738 -27.2814 40.6188 23.1178 -28.4133 42.447 30.5309 -29.4989 44.2399 39.4231 -30.5386 45.9978 50.0614 -9.9139 13.0071 3.07761 -10.0767 13.2634 4.39771 -10.2341 13.5134 5.48881 -10.3859 13.7573 6.3574 -10.5322 13.9951 7.00861 -10.673 14.227 7.44627 -10.8081 14.4532 7.6729 -10.9376 14.6736 7.68971 -11.0615 14.8883 7.49657 -11.1798 15.0976 7.09197 -11.2924 15.3013 6.47293 -11.3995 15.4996 5.63489 -11.5011 15.6926 4.5716 -11.5971 15.8803 3.27493 -11.6876 16.0628 1.73462 -12.6321 17.2499 0.21622 -14.3969 19.4149 -0.752916 -16.1115 21.5392 -1.25169 -17.7764 23.6232 -1.25043 -19.3919 25.6673 -0.7136 -20.9586 27.6717 0.401324 -22.4769 29.6367 2.14533 -23.9471 31.5627 4.57969 -25.3698 33.4499 7.7784 -26.7455 35.2986 11.8313 -28.0745 37.1092 16.848 -29.3574 38.8818 22.9637 -30.5946 40.6169 30.3464 -31.7866 42.3146 39.2073 -32.9339 43.9753 49.815 -10.5497 12.4056 3.05992 -10.7338 12.6454 4.38853 -10.9121 12.8789 5.48698 -11.0846 13.1064 6.36183 -11.2514 13.3277 7.01831 -11.4124 13.5432 7.46031 -11.5676 13.7527 7.69039 -11.7171 13.9565 7.70984 -11.8609 14.1545 7.51855 -11.999 14.3469 7.11504 -12.1314 14.5337 6.49635 -12.2582 14.715 5.65794 -12.3794 14.8909 4.59354 -12.495 15.0613 3.29501 -12.6052 15.2264 1.75207 -13.6029 16.3696 0.23032 -15.4555 18.4626 -0.742807 -17.2595 20.5126 -1.24645 -19.0152 22.52 -1.2511 -20.723 24.4853 -0.721395 -22.3835 26.4086 0.385024 -23.997 28.2905 2.11897 -25.5639 30.1311 4.54159 -27.0846 31.9308 7.72674 -28.5597 33.69 11.7641 -29.9896 35.409 16.7635 -31.3746 37.0881 22.8601 -32.7152 38.7277 30.2224 -34.012 40.3281 39.062 -35.2652 41.8895 49.6488 -11.177 11.7957 3.05107 -11.3809 12.018 4.38394 -11.5787 12.2342 5.48606 -11.7706 12.4444 6.36405 -11.9566 12.6485 7.02316 -12.1367 12.8467 7.46732 -12.3109 13.039 7.69914 -12.4794 13.2255 7.7199 -12.642 13.4062 7.52954 -12.799 13.5812 7.12657 -12.9503 13.7505 6.50806 -13.0959 13.9143 5.66947 -13.2359 14.0725 4.60452 -13.3704 14.2253 3.30506 -13.4995 14.3726 1.76081 -14.548 15.4696 0.237392 -16.4846 17.4864 -0.73773 -18.3743 19.4581 -1.24381 -20.2175 21.3852 -1.25142 -22.0144 23.268 -0.72528 -23.7657 25.1069 0.376874 -25.4715 26.9023 2.10578 -27.1325 28.6545 4.5225 -28.7488 30.3639 7.70083 -30.3211 32.0309 11.7305 -31.8496 33.6558 16.7211 -33.3347 35.239 22.8081 -34.777 36.7809 30.16 -36.1767 38.2819 38.9889 -37.5343 39.7423 49.5652 -11.7957 11.177 3.05107 -12.018 11.3809 4.38394 -12.2342 11.5787 5.48606 -12.4444 11.7706 6.36405 -12.6485 11.9566 7.02316 -12.8467 12.1367 7.46732 -13.039 12.3109 7.69914 -13.2255 12.4794 7.7199 -13.4062 12.642 7.52954 -13.5812 12.799 7.12657 -13.7505 12.9503 6.50806 -13.9143 13.0959 5.66947 -14.0725 13.2359 4.60452 -14.2253 13.3704 3.30506 -14.3726 13.4995 1.76081 -15.4696 14.548 0.237392 -17.4864 16.4846 -0.73773 -19.4581 18.3743 -1.24381 -21.3852 20.2175 -1.25142 -23.268 22.0144 -0.72528 -25.1069 23.7657 0.376874 -26.9023 25.4715 2.10578 -28.6545 27.1325 4.5225 -30.3639 28.7488 7.70083 -32.0309 30.3211 11.7305 -33.6558 31.8496 16.7211 -35.239 33.3347 22.8081 -36.7809 34.777 30.16 -38.2819 36.1767 38.9889 -39.7423 37.5343 49.5652 -12.4056 10.5497 3.05992 -12.6454 10.7338 4.38853 -12.8789 10.9121 5.48698 -13.1064 11.0846 6.36183 -13.3277 11.2514 7.01831 -13.5432 11.4124 7.46031 -13.7527 11.5676 7.69039 -13.9565 11.7171 7.70984 -14.1545 11.8609 7.51855 -14.3469 11.999 7.11504 -14.5337 12.1314 6.49635 -14.715 12.2582 5.65794 -14.8909 12.3794 4.59354 -15.0613 12.495 3.29501 -15.2264 12.6052 1.75207 -16.3696 13.6029 0.23032 -18.4626 15.4555 -0.742807 -20.5126 17.2595 -1.24645 -22.52 19.0152 -1.2511 -24.4853 20.723 -0.721395 -26.4086 22.3835 0.385024 -28.2905 23.997 2.11897 -30.1311 25.5639 4.54159 -31.9308 27.0846 7.72674 -33.69 28.5597 11.7641 -35.409 29.9896 16.7635 -37.0881 31.3746 22.8601 -38.7277 32.7152 30.2224 -40.3281 34.012 39.062 -41.8895 35.2652 49.6488 -13.0071 9.9139 3.07761 -13.2634 10.0767 4.39771 -13.5134 10.2341 5.48881 -13.7573 10.3859 6.3574 -13.9951 10.5322 7.00861 -14.227 10.673 7.44627 -14.4532 10.8081 7.6729 -14.6736 10.9376 7.68971 -14.8883 11.0615 7.49657 -15.0976 11.1798 7.09197 -15.3013 11.2924 6.47293 -15.4996 11.3995 5.63489 -15.6926 11.5011 4.5716 -15.8803 11.5971 3.27493 -16.0628 11.6876 1.73462 -17.2499 12.6321 0.21622 -19.4149 14.3969 -0.752916 -21.5392 16.1115 -1.25169 -23.6232 17.7764 -1.25043 -25.6673 19.3919 -0.7136 -27.6717 20.9586 0.401324 -29.6367 22.4769 2.14533 -31.5627 23.9471 4.57969 -33.4499 25.3698 7.7784 -35.2986 26.7455 11.8313 -37.1092 28.0745 16.848 -38.8818 29.3574 22.9637 -40.6169 30.5946 30.3464 -42.3146 31.7866 39.2073 -43.9753 32.9339 49.815 -13.6006 9.2702 3.10416 -13.8726 9.40996 4.41149 -14.1383 9.54471 5.49157 -14.3979 9.67433 6.35076 -14.6516 9.79872 6.99406 -14.8994 9.9178 7.42522 -15.1414 10.0315 7.64665 -15.3779 10.1398 7.65951 -15.6089 10.2426 7.4636 -15.8344 10.3399 7.05736 -16.0546 10.4318 6.4378 -16.2696 10.5182 5.60033 -16.4793 10.5991 4.53872 -16.684 10.6745 3.24485 -16.8836 10.7445 1.70854 -18.1121 11.6334 0.195175 -20.3447 13.3065 -0.767967 -22.5391 14.9282 -1.25944 -24.6956 16.4988 -1.24933 -26.8147 18.0189 -0.701854 -28.8964 19.4889 0.425774 -30.9411 20.9092 2.18477 -32.9491 22.2802 4.63664 -34.9206 23.6025 7.85554 -36.8559 24.8765 11.9314 -38.7552 26.1026 16.9738 -40.6188 27.2814 23.1178 -42.447 28.4133 30.5309 -44.2399 29.4989 39.4231 -45.9978 30.5386 50.0614 -14.1871 8.61946 3.13955 -14.4741 8.73406 4.42986 -14.7548 8.84423 5.49525 -15.0295 8.94978 6.3419 -15.2982 9.05052 6.97466 -15.5613 9.14631 7.39713 -15.8188 9.23705 7.61163 -16.0708 9.32263 7.61921 -16.3174 9.403 7.41961 -16.5589 9.47809 7.0112 -16.7951 9.54787 6.39095 -17.0263 9.61231 5.55427 -17.2525 9.67139 4.49493 -17.4738 9.7251 3.20485 -17.6902 9.77346 1.67391 -18.9577 10.6042 0.167317 -21.2531 12.1818 -0.787828 -23.513 13.7069 -1.26958 -25.7377 15.1801 -1.24771 -27.9275 16.6016 -0.6861 -30.0825 17.972 0.458355 -32.203 19.2916 2.23718 -34.2894 20.5609 4.71216 -36.3417 21.7804 7.95766 -38.3602 22.9505 12.0637 -40.3452 24.0718 17.14 -42.2968 25.1446 23.321 -44.2152 26.1695 30.7737 -46.1007 27.147 39.7067 -47.9535 28.0776 50.3845 -14.7678 7.96285 3.18379 -15.069 8.04979 4.45284 -15.364 8.13306 5.49986 -15.6531 8.21235 6.33082 -15.9364 8.2874 6.9504 -16.2141 8.358 7.362 -16.4864 8.42397 7.56783 -16.7535 8.48516 7.56881 -17.0154 8.54144 7.36459 -17.2723 8.59274 6.95347 -17.5242 8.63895 6.33239 -17.7713 8.68004 5.49673 -18.0136 8.71594 4.44028 -18.2512 8.74664 3.15501 -18.4842 8.7721 1.63089 -19.7879 9.54195 0.132818 -22.141 11.0201 -0.812321 -24.4614 12.4451 -1.28195 -26.7494 13.8174 -1.24544 -29.0051 15.1373 -0.666284 -31.229 16.4052 0.499015 -33.421 17.6215 2.30235 -35.5815 18.7867 4.80583 -37.7106 19.9012 8.08408 -39.8086 20.9654 12.2272 -41.8756 21.9798 17.3448 -43.9118 22.9449 23.5711 -45.9173 23.8611 31.0719 -47.8924 24.729 40.0543 -49.8373 25.549 50.7796 -15.3442 7.30201 3.23687 -15.6589 7.35828 4.48043 -15.9675 7.41187 5.50542 -16.2703 7.46234 6.31755 -16.5675 7.50932 6.92127 -16.8594 7.55248 7.31983 -17.146 7.59157 7.51523 -17.4276 7.62637 7.50828 -17.7042 7.65669 7.29852 -17.9761 7.68238 6.88417 -18.2432 7.70331 6.26212 -18.5058 7.71939 5.42774 -18.7639 7.73054 4.37484 -19.0176 7.73667 3.09544 -19.2669 7.73775 1.57964 -20.6037 8.44389 0.0918977 -23.0088 9.81862 -0.84123 -25.3841 11.1399 -1.29636 -27.73 12.408 -1.24239 -30.0465 13.6232 -0.64237 -32.334 14.7858 0.547643 -34.5926 15.8964 2.37996 -36.8226 16.9551 4.91706 -39.0239 17.9625 8.2338 -41.197 18.9188 12.4204 -43.3418 19.8247 17.5864 -45.4585 20.6804 23.8653 -47.5474 21.4865 31.4218 -49.6085 22.2434 40.4608 -51.642 22.9515 51.2403 -15.9185 6.63907 3.29881 -16.2459 6.66106 4.51263 -16.5673 6.68168 5.51191 -16.8831 6.70029 6.30206 -17.1935 6.71636 6.88728 -17.4988 6.72946 7.27059 -17.799 6.73921 7.45382 -18.0945 6.7453 7.43761 -18.3854 6.74746 7.22138 -18.6717 6.74547 6.80329 -18.9537 6.73914 6.18015 -19.2314 6.72832 5.34734 -19.5049 6.71287 4.29869 -19.7743 6.69268 3.0263 -20.0396 6.66767 1.52038 -21.4062 7.30707 0.0448219 -23.8567 8.57436 -0.874302 -26.2807 9.7882 -1.31259 -28.6783 10.9488 -1.23843 -31.0497 12.0564 -0.614364 -33.395 13.1112 0.604037 -35.7146 14.1135 2.46954 -38.0084 15.0636 5.04498 -40.2767 15.962 8.40549 -42.5197 16.8088 12.6414 -44.7374 17.6046 17.8618 -46.93 18.3496 24.1997 -49.0976 19.0443 31.8183 -51.2404 19.6892 40.92 -53.3584 20.2845 51.7584 -16.4935 5.97682 3.36959 -16.8326 5.96019 4.54947 -17.1659 5.94388 5.51937 -17.4938 5.92701 6.28438 -17.8165 5.90886 6.84843 -18.1344 5.88881 7.21428 -18.4475 5.86635 7.38357 -18.7563 5.84104 7.35677 -19.0607 5.81251 7.13316 -19.3609 5.78044 6.71083 -19.6571 5.74456 6.08651 -19.9493 5.70466 5.25559 -20.2377 5.66053 4.21193 -20.5224 5.61201 2.94774 -20.8034 5.55896 1.45338 -22.1958 6.12845 -0.00809578 -24.6846 7.28421 -0.911249 -27.1501 8.387 -1.33042 -29.5924 9.43688 -1.23345 -32.0118 10.434 -0.582343 -34.4083 11.3784 0.667855 -36.7823 12.2704 2.57037 -39.1337 13.1101 5.18841 -41.4627 13.8978 8.59734 -43.7696 14.6338 12.8874 -46.0544 15.3184 18.1675 -48.3171 15.9518 24.5696 -50.558 16.5344 32.2552 -52.7771 17.0665 41.4236 -54.9746 17.5486 52.3237 -17.0729 5.31892 3.44922 -17.4224 5.25837 4.59095 -17.7663 5.20036 5.5278 -18.1051 5.1437 6.26452 -18.4391 5.08738 6.80471 -18.7686 5.03056 7.1509 -19.0937 4.97254 7.30447 -19.4148 4.91271 7.26574 -19.7319 4.85057 7.03385 -20.0452 4.78567 6.60678 -20.3549 4.71765 5.98122 -20.661 4.64618 5.15256 -20.9638 4.571 4.11471 -21.2631 4.49186 2.85999 -21.5593 4.40858 1.37895 -22.9731 4.90483 -0.066493 -25.4918 5.94495 -0.951754 -27.9906 6.93311 -1.34964 -30.4697 7.86921 -1.22741 -32.9291 8.75319 -0.546498 -35.3691 9.58506 0.738566 -37.7898 10.3649 2.68147 -40.1914 11.0927 5.34576 -42.574 11.7687 8.80697 -44.9376 12.393 13.1553 -47.2825 12.9657 18.4989 -49.6087 13.4872 24.9689 -51.9162 13.9575 32.7245 -54.2053 14.3771 41.9617 -56.476 14.746 52.9238 -17.6614 4.67018 3.5377 -18.0196 4.55917 4.63708 -18.3726 4.45366 5.53722 -18.7208 4.35201 6.24247 -19.0647 4.25283 6.75614 -19.4044 4.15498 7.08043 -19.7403 4.05748 7.21652 -20.0725 3.95952 7.16452 -20.4012 3.86039 6.92345 -20.7266 3.75952 6.49116 -21.0489 3.65639 5.86434 -21.3681 3.55055 5.03835 -21.6843 3.44165 4.00719 -21.9976 3.32935 2.76331 -22.3082 3.21337 1.29745 -23.7382 3.63287 -0.129957 -26.2773 4.55328 -0.995484 -28.8 5.42337 -1.37005 -31.3065 6.24283 -1.22033 -33.7969 7.0114 -0.507178 -36.2713 7.72889 0.815375 -38.73 8.39518 2.80144 -41.1731 9.0102 5.51487 -43.6006 9.5739 9.03125 -46.0127 10.0863 13.4405 -48.4095 10.5474 18.8502 -50.791 10.9574 25.3899 -53.1574 11.3162 33.2164 -55.5087 11.6241 42.5219 -57.845 11.8812 53.5433 -18.2655 4.03696 3.63503 -18.6299 3.86732 4.68788 -18.9897 3.70718 5.54764 -19.3454 3.55423 6.21827 -19.6972 3.40657 6.7027 -20.0454 3.26261 7.00287 -20.3904 3.12104 7.1197 -20.7322 2.98074 7.05311 -21.0712 2.84076 6.80196 -21.4074 2.70032 6.36402 -21.7409 2.55871 5.73593 -22.072 2.41535 4.91309 -22.4006 2.26972 3.88957 -22.7269 2.1214 2.65798 -23.051 1.97 1.20932 -24.4912 2.30913 -0.198027 -27.0395 3.10584 -1.04209 -29.5752 3.85465 -1.39151 -32.0983 4.55495 -1.21236 -34.609 5.20625 -0.464961 -37.1075 5.80811 0.897137 -39.5939 6.3602 2.92841 -42.0683 6.86222 5.6929 -44.5307 7.31396 9.26615 -46.9814 7.71523 13.7377 -49.4204 8.06591 19.2141 -51.8478 8.36591 25.8231 -54.2635 8.61517 33.719 -56.6678 8.81368 43.0891 -59.0607 8.96143 54.1636 -18.8936 3.42785 3.7412 -19.2609 3.1892 4.74336 -19.6245 2.9655 5.5591 -19.9846 2.75349 6.19193 -20.3418 2.55052 6.64444 -20.6961 2.35441 6.91825 -21.048 2.16334 7.01404 -21.3974 1.9758 6.93152 -21.7447 1.7905 6.66941 -22.0899 1.60637 6.2254 -22.4331 1.42247 5.5961 -22.7745 1.23802 4.77694 -23.1142 1.05234 3.7621 -23.4521 0.864843 2.54438 -23.7884 0.675009 1.11503 -25.2316 0.930052 -0.27019 -27.7763 1.59926 -1.09124 -30.3121 2.22392 -1.41395 -32.8393 2.80305 -1.20384 -35.3581 3.33585 -0.420729 -37.8684 3.82159 0.982244 -40.3705 4.25966 3.05983 -42.8643 4.64951 5.87613 -45.3501 4.99069 9.50649 -47.8279 5.28281 14.0398 -50.2977 5.52552 19.5814 -52.7596 5.71853 26.2569 -55.2136 5.86161 34.2173 -57.6599 5.95456 43.6449 -60.0984 5.99722 54.7623 -19.5577 2.85467 3.85622 -19.9228 2.53349 4.80356 -20.2856 2.23485 5.57161 -20.6463 1.95409 6.16348 -21.0051 1.68744 6.58137 -21.3623 1.43187 6.82659 -21.718 1.18484 6.89956 -22.0723 0.9443 6.79979 -22.4253 0.708493 6.52587 -22.7772 0.475961 6.07541 -23.1279 0.245464 5.445 -23.4777 0.0159443 4.63012 -23.8264 -0.213505 3.62509 -24.1742 -0.443666 2.42291 -24.5212 -0.675215 1.01516 -25.9589 -0.508034 -0.345887 -28.4847 0.0302015 -1.14263 -31.0059 0.52834 -1.43744 -33.5227 0.984987 -1.19536 -36.035 1.39892 -0.375771 -38.543 1.76905 1.06849 -41.0468 2.09444 3.19232 -43.5463 2.37424 6.05973 -46.0418 2.60771 9.74563 -48.5331 2.79419 14.338 -51.0203 2.93309 19.9406 -53.5036 3.0239 26.6767 -55.9828 3.06616 34.6933 -58.4582 3.05946 44.1671 -60.9295 3.00343 55.3123 -20.2743 2.33402 3.98009 -20.6297 1.91226 4.86848 -20.9851 1.52386 5.58522 -21.3405 1.16197 6.13297 -21.6959 0.821198 6.51354 -22.0513 0.497197 6.72793 -22.4067 0.186457 6.77631 -22.7621 -0.113901 6.65799 -23.1175 -0.406257 6.37143 -23.4729 -0.692597 5.91417 -23.8283 -0.97459 5.28281 -24.1836 -1.25365 4.4729 -24.539 -1.53098 3.47891 -24.8944 -1.80762 2.29408 -25.2498 -2.08445 0.910337 -26.6721 -2.00888 -0.424514 -29.1613 -1.60461 -1.19598 -31.6505 -1.23462 -1.46222 -34.1397 -0.900854 -1.18783 -36.6289 -0.60503 -0.331915 -39.118 -0.348668 1.15289 -41.6072 -0.133122 3.32145 -44.0964 0.0404011 6.23747 -46.5856 0.170821 9.97517 -49.0748 0.257167 14.6213 -51.564 0.298567 20.2777 -54.0532 0.294231 27.0647 -56.5424 0.243446 35.1249 -59.0315 0.145565 44.6287 -61.5207 4.28553e-14 55.7812 0.779817 15.2167 21.2315 0.696368 16.2711 20.8836 0.609012 17.3143 20.6031 0.523226 18.3448 20.389 0.443288 19.3611 20.2402 0.372584 20.3619 20.156 0.313823 21.3459 20.1357 0.269187 22.3118 20.1792 0.24045 23.2582 20.2862 0.229055 24.1841 20.4569 0.236183 25.0882 20.6915 0.262797 25.9692 20.9907 0.309683 26.826 21.3554 0.377472 27.6574 21.7865 0.466668 28.462 22.2855 0.675206 28.9293 22.7444 0.927832 29.0748 23.1073 1.10959 29.213 23.4652 1.22873 29.3442 23.8186 1.29252 29.4686 24.1678 1.30737 29.5864 24.5133 1.27896 29.6977 24.8555 1.21232 29.8026 25.1949 1.11196 29.9012 25.5318 0.98189 29.9937 25.8668 0.825714 30.0801 26.2003 0.646664 30.1605 26.5331 0.447654 30.2348 26.8655 0.231309 30.3031 27.1984 -1.32392e-14 30.3652 27.5323 0.459685 14.4337 21.2525 0.244147 15.516 20.9115 0.0371812 16.5841 20.6347 -0.157967 17.6367 20.4208 -0.338722 18.6724 20.2688 -0.503015 19.6902 20.1778 -0.649177 20.6888 20.1475 -0.775849 21.6671 20.1773 -0.881926 22.624 20.2673 -0.966505 23.5585 20.4175 -1.02885 24.4693 20.6283 -1.06836 25.3555 20.9004 -1.08455 26.2158 21.2347 -1.07705 27.0492 21.6324 -1.04557 27.8544 22.0949 -0.902734 28.3791 22.5354 -0.713921 28.6336 22.9031 -0.581636 28.8731 23.2695 -0.498953 29.0982 23.6355 -0.459757 29.3093 24.0015 -0.458631 29.5068 24.3685 -0.49076 29.6911 24.7372 -0.551853 29.8624 25.1084 -0.638077 30.021 25.4833 -0.746001 30.167 25.8627 -0.872546 30.3003 26.2479 -1.01495 30.4211 26.6403 -1.17072 30.5291 27.0412 -1.33761 30.6243 27.4522 -1.51362 30.7062 27.8754 0.0764428 13.7137 21.272 -0.250147 14.8135 20.9393 -0.559577 15.8969 20.6676 -0.849962 16.9627 20.4555 -1.11979 18.0097 20.302 -1.36782 19.0369 20.2063 -1.59308 20.0431 20.1677 -1.79476 21.0273 20.186 -1.97218 21.9886 20.2611 -2.12483 22.9258 20.3931 -2.25228 23.838 20.5824 -2.35418 24.7241 20.8298 -2.43027 25.5831 21.1361 -2.48034 26.4138 21.5027 -2.50426 27.2152 21.9312 -2.42599 27.7855 22.3526 -2.30202 28.1309 22.7203 -2.22176 28.455 23.0898 -2.17941 28.7584 23.4619 -2.16985 29.0418 23.8377 -2.18852 29.3059 24.2182 -2.23137 29.5511 24.6047 -2.29475 29.7776 24.9984 -2.37543 29.9858 25.401 -2.47048 30.1757 25.8139 -2.57728 30.3473 26.2391 -2.69347 30.5006 26.6786 -2.81693 30.6352 27.1348 -2.94575 30.7508 27.6102 -3.0782 30.8468 28.1079 -0.353532 13.0405 21.29 -0.775028 14.15 20.9665 -1.17342 15.2415 20.7009 -1.54763 16.3138 20.4918 -1.89683 17.3658 20.3382 -2.22031 18.3965 20.2392 -2.51752 19.4047 20.1941 -2.78802 20.3895 20.2027 -3.03144 21.35 20.2649 -3.24751 22.2852 20.3808 -3.43601 23.1941 20.5508 -3.59676 24.0757 20.7758 -3.72966 24.9291 21.0567 -3.83463 25.7532 21.3948 -3.91161 26.5469 21.7918 -3.89636 27.1524 22.194 -3.83737 27.5725 22.5582 -3.81062 27.966 22.9265 -3.81129 28.3339 23.3 -3.83513 28.6768 23.68 -3.87831 28.9955 24.0679 -3.93742 29.2904 24.4652 -4.00942 29.562 24.8739 -4.09155 29.8104 25.2958 -4.18134 30.0357 25.7332 -4.27658 30.2378 26.1886 -4.37523 30.4165 26.6648 -4.4755 30.5713 27.1651 -4.57572 30.7018 27.6929 -4.67442 30.8069 28.2526 -0.818314 12.402 21.3064 -1.322 13.5156 20.9925 -1.79847 14.6097 20.7337 -2.24715 15.6833 20.5285 -2.66758 16.7353 20.3759 -3.05942 17.7646 20.2748 -3.42237 18.7702 20.2247 -3.75624 19.7512 20.2252 -4.06085 20.7066 20.2763 -4.33608 21.6356 20.378 -4.58187 22.5373 20.531 -4.79815 23.4107 20.7358 -4.98491 24.2548 20.9936 -5.14215 25.0688 21.3058 -5.26989 25.8515 21.6741 -5.31577 26.4829 22.0573 -5.32115 26.9632 22.4156 -5.34851 27.4128 22.7798 -5.39391 27.8325 23.1511 -5.45379 28.2233 23.5311 -5.525 28.5858 23.9217 -5.60469 28.9206 24.3246 -5.6903 29.228 24.7422 -5.77952 29.5082 25.1768 -5.87027 29.7611 25.6314 -5.96065 29.9867 26.109 -6.04893 30.1845 26.6132 -6.13355 30.3541 27.1481 -6.21306 30.4945 27.7181 -6.28613 30.6047 28.3287 -1.30904 11.7895 21.3214 -1.88469 12.9026 21.0172 -2.43031 13.9951 20.7655 -2.94561 15.0657 20.5647 -3.43037 16.1136 20.4137 -3.88444 17.1375 20.3116 -4.3077 18.1367 20.2577 -4.70008 19.1101 20.2516 -5.06154 20.0569 20.2931 -5.39206 20.9763 20.3826 -5.69165 21.8673 20.5204 -5.96034 22.7292 20.7073 -6.19815 23.561 20.9445 -6.40515 24.3618 21.2333 -6.58136 25.1307 21.5755 -6.68626 25.7797 21.9406 -6.75476 26.3073 22.2915 -6.8361 26.8007 22.6495 -6.92706 27.2611 23.0161 -7.02472 27.6893 23.3932 -7.12648 28.0859 23.7828 -7.22997 28.4516 24.1873 -7.33307 28.7865 24.6091 -7.43384 29.0908 25.0514 -7.53052 29.3645 25.5173 -7.62149 29.6074 26.0106 -7.70525 29.8188 26.5357 -7.78043 29.9981 27.0972 -7.84573 30.1443 27.7009 -7.89994 30.2561 28.3531 -1.81902 11.1963 21.3349 -2.45824 12.3053 21.0401 -3.06556 13.3925 20.7955 -3.64083 14.4568 20.5994 -4.18398 15.4971 20.4507 -4.69494 16.5124 20.3483 -5.1737 17.5018 20.2915 -5.62026 18.4645 20.28 -6.03466 19.3996 20.3135 -6.41692 20.3063 20.3924 -6.7671 21.1839 20.517 -7.08526 22.0314 20.6881 -7.37148 22.8481 20.9069 -7.6258 23.6331 21.1748 -7.84831 24.3856 21.4937 -8.00991 25.045 21.8418 -8.13976 25.6081 22.1845 -8.27432 26.1345 22.5351 -8.41096 26.6254 22.8954 -8.54732 27.0816 23.2675 -8.68127 27.5036 23.6538 -8.81088 27.892 24.0568 -8.93437 28.247 24.4795 -9.05013 28.5687 24.9254 -9.15666 28.857 25.3981 -9.25257 29.1115 25.9021 -9.33655 29.3317 26.4422 -9.40737 29.5166 27.0241 -9.46382 29.6651 27.6542 -9.50474 29.7756 28.3398 -2.34314 10.6172 21.3469 -3.03892 11.7191 21.0611 -3.70162 12.7981 20.8233 -4.33118 13.853 20.632 -4.92755 14.8829 20.4858 -5.49072 15.8867 20.3836 -6.02071 16.8636 20.3248 -6.51757 17.8128 20.3089 -6.98134 18.7335 20.3358 -7.41208 19.6249 20.4056 -7.80988 20.4864 20.5187 -8.1748 21.3171 20.6761 -8.50691 22.1163 20.8788 -8.80628 22.8833 21.1284 -9.07297 23.6171 21.4266 -9.28882 24.2802 21.7591 -9.47783 24.8684 22.0933 -9.66429 25.4182 22.4359 -9.84612 25.9305 22.7891 -10.0214 26.4061 23.155 -10.1885 26.8456 23.5363 -10.3457 27.2495 23.9359 -10.4916 27.6179 24.3572 -10.6249 27.9509 24.8037 -10.7443 28.2483 25.2799 -10.8486 28.5097 25.7906 -10.9366 28.7343 26.3412 -11.0072 28.9212 26.9382 -11.0591 29.069 27.5886 -11.0914 29.1759 28.301 -2.87746 10.0483 21.3574 -3.62386 11.1406 21.0799 -4.33654 12.2087 20.8485 -5.01543 13.2517 20.6618 -5.6605 14.2685 20.5182 -6.27173 15.2583 20.4166 -6.84914 16.2202 20.3564 -7.39278 17.1534 20.3371 -7.9027 18.0574 20.3584 -8.37896 18.9312 20.4205 -8.82162 19.7744 20.524 -9.23076 20.5861 20.6696 -9.60643 21.3658 20.8584 -9.94868 22.1125 21.092 -10.2575 22.8257 21.3722 -10.5251 23.4866 21.6908 -10.7707 24.0906 22.0166 -11.0073 24.6548 22.3513 -11.2332 25.1803 22.697 -11.4471 25.6678 23.0562 -11.6475 26.1177 23.4318 -11.8332 26.5306 23.8268 -12.0029 26.9065 24.245 -12.1556 27.2454 24.6904 -12.2901 27.5471 25.1676 -12.4054 27.811 25.682 -12.5004 28.0364 26.2396 -12.5739 28.2221 26.8475 -12.625 28.3667 27.5135 -12.6523 28.4683 28.2469 -3.41893 9.48659 21.3664 -4.21085 10.5668 21.0963 -4.96882 11.6218 20.8708 -5.69272 12.6505 20.6883 -6.38247 13.652 20.5472 -7.03806 14.6254 20.4465 -7.65948 15.5701 20.3854 -8.24673 16.4852 20.3633 -8.79986 17.3702 20.3801 -9.3189 18.2244 20.4359 -9.80389 19.0473 20.5312 -10.2549 19.838 20.6669 -10.6719 20.5962 20.8439 -11.055 21.321 21.064 -11.4042 22.0118 21.3289 -11.7207 22.6652 21.6352 -12.02 23.2763 21.9533 -12.3046 23.8471 22.2804 -12.5732 24.3784 22.619 -12.8248 24.8708 22.9715 -13.0583 25.3248 23.3411 -13.2726 25.7409 23.7311 -1