<?xml version="1.0"?> 
<VTKFile type="StructuredGrid" version="0.1"> 
<StructuredGrid WholeExtent="0 14 0 14 0 29"> 
<Piece Extent="0 14 0 14 0 29"> 
<PointData>
<DataArray type="Float32" Name="efield" format="ascii" NumberOfComponents="3"> 
2.28343 -0.0484011 -6.1764 2.46196 0.0116603 -5.88267 2.64048 0.0503846 -5.5673 2.81901 0.0771971 -5.23028 2.99753 0.0979349 -4.87162 3.17606 0.116406 -4.49132 3.35459 0.1352 -4.08938 3.53311 0.15614 -3.66579 3.72666 0.163741 -3.21862 3.92021 0.155176 -2.74595 4.11376 0.135066 -2.24777 4.30731 0.106972 -1.72409 4.50085 0.0736881 -1.1749 4.6944 0.037435 -0.600203 4.88795 -9.2242e-16 0 2.09373 -0.177987 -6.38601 2.28546 -0.180824 -6.10875 2.47395 -0.191866 -5.80649 2.65981 -0.206264 -5.47922 2.84344 -0.22086 -5.12694 3.02509 -0.233514 -4.74966 3.20497 -0.242738 -4.34737 3.38322 -0.247468 -3.92008 3.61129 -0.275852 -3.46311 3.83567 -0.311511 -2.97179 4.05678 -0.351249 -2.44613 4.27493 -0.392576 -1.88611 4.49038 -0.433526 -1.29176 4.70332 -0.472534 -0.663051 4.91392 -0.508341 1.53873e-16 1.9254 -0.328949 -6.56337 2.12123 -0.377192 -6.30005 2.31224 -0.426423 -6.00888 2.49909 -0.474039 -5.68985 2.68226 -0.518299 -5.34298 2.86206 -0.558008 -4.96825 3.03873 -0.592334 -4.56568 3.21246 -0.620689 -4.13525 3.45967 -0.685139 -3.66998 3.70051 -0.75043 -3.16288 3.93554 -0.81442 -2.61396 4.16521 -0.875441 -2.02321 4.38992 -0.932184 -1.39063 4.60994 -0.983615 -0.716231 4.82554 -1.02892 2.88843e-16 1.76722 -0.490057 -6.70848 1.96193 -0.572628 -6.45656 2.15085 -0.652067 -6.17447 2.33457 -0.726965 -5.86219 2.51351 -0.796378 -5.51974 2.68798 -0.859667 -5.1471 2.85823 -0.916402 -4.74429 3.02442 -0.966296 -4.3113 3.27905 -1.06546 -3.83924 3.52529 -1.16086 -3.31923 3.76376 -1.25113 -2.75128 3.99494 -1.33523 -2.13538 4.21926 -1.41236 -1.47153 4.43704 -1.48191 -0.759741 4.64858 -1.54341 3.94012e-16 1.613 -0.655134 -6.82135 1.80321 -0.764496 -6.5783 1.98691 -0.868361 -6.30326 2.16459 -0.966 -5.99624 2.33662 -1.05694 -5.65722 2.50327 -1.14088 -5.28621 2.66474 -1.21764 -4.88321 2.82122 -1.28712 -4.44822 3.07424 -1.41877 -3.97088 3.31741 -1.54342 -3.44084 3.55131 -1.66029 -2.85809 3.77641 -1.76881 -2.22262 3.99312 -1.86855 -1.53446 4.20178 -1.95922 -0.793582 4.40268 -2.04061 4.63074e-16 1.4592 -0.820624 -6.90196 1.64235 -0.951368 -6.66525 1.81845 -1.07531 -6.39526 1.98787 -1.19215 -6.09198 2.15092 -1.30168 -5.75542 2.30781 -1.40382 -5.38557 2.45875 -1.49854 -4.98244 2.60389 -1.58586 -4.54603 2.84823 -1.74724 -4.06492 3.08176 -1.89943 -3.5277 3.30497 -2.04208 -2.93437 3.51829 -2.17497 -2.28494 3.72207 -2.29796 -1.5794 3.91665 -2.41097 -0.817755 4.10228 -2.51401 4.93795e-16 1.30377 -0.984482 -6.95033 1.47761 -1.13256 -6.71743 1.64403 -1.27322 -6.45046 1.80328 -1.40641 -6.14943 1.95559 -1.53213 -5.81434 2.10113 -1.65042 -5.44519 2.24008 -1.76135 -5.04198 2.37257 -1.865 -4.60471 2.60257 -2.05295 -4.12134 2.82129 -2.23035 -3.57982 3.02911 -2.39718 -2.98015 3.22637 -2.55346 -2.32233 3.41335 -2.69926 -1.60637 3.59033 -2.83466 -0.832258 3.75756 -2.95979 4.87504e-16 1.14564 -1.14564 -6.96646 1.30789 -1.30789 -6.73482 1.46257 -1.46257 -6.46885 1.60979 -1.60979 -6.16858 1.74969 -1.74969 -5.83398 1.88239 -1.88239 -5.46506 2.008 -2.008 -5.06182 2.12667 -2.12667 -4.62427 2.33764 -2.33764 -4.14014 2.53741 -2.53741 -3.59719 2.72618 -2.72618 -2.99541 2.90415 -2.90415 -2.3348 3.07152 -3.07152 -1.61536 3.2285 -3.2285 -0.837093 3.37528 -3.37528 4.48596e-16 0.984482 -1.30377 -6.95033 1.13256 -1.47761 -6.71743 1.27322 -1.64403 -6.45046 1.40641 -1.80328 -6.14943 1.53213 -1.95559 -5.81434 1.65042 -2.10113 -5.44519 1.76135 -2.24008 -5.04198 1.865 -2.37257 -4.60471 2.05295 -2.60257 -4.12134 2.23035 -2.82129 -3.57982 2.39718 -3.02911 -2.98015 2.55346 -3.22637 -2.32233 2.69926 -3.41335 -1.60637 2.83466 -3.59033 -0.832258 2.95979 -3.75756 3.84001e-16 0.820624 -1.4592 -6.90196 0.951368 -1.64235 -6.66525 1.07531 -1.81845 -6.39526 1.19215 -1.98787 -6.09198 1.30168 -2.15092 -5.75542 1.40382 -2.30781 -5.38557 1.49854 -2.45875 -4.98244 1.58586 -2.60389 -4.54603 1.74724 -2.84823 -4.06492 1.89943 -3.08176 -3.5277 2.04208 -3.30497 -2.93437 2.17497 -3.51829 -2.28494 2.29796 -3.72207 -1.5794 2.41097 -3.91665 -0.817755 2.51401 -4.10228 3.02613e-16 0.655134 -1.613 -6.82135 0.764496 -1.80321 -6.5783 0.868361 -1.98691 -6.30326 0.966 -2.16459 -5.99624 1.05694 -2.33662 -5.65722 1.14088 -2.50327 -5.28621 1.21764 -2.66474 -4.88321 1.28712 -2.82122 -4.44822 1.41877 -3.07424 -3.97088 1.54342 -3.31741 -3.44084 1.66029 -3.55131 -2.85809 1.76881 -3.77641 -2.22262 1.86855 -3.99312 -1.53446 1.95922 -4.20178 -0.793582 2.04061 -4.40268 2.14632e-16 0.490057 -1.76722 -6.70848 0.572628 -1.96193 -6.45656 0.652067 -2.15085 -6.17447 0.726965 -2.33457 -5.86219 0.796378 -2.51351 -5.51974 0.859667 -2.68798 -5.1471 0.916402 -2.85823 -4.74429 0.966296 -3.02442 -4.3113 1.06546 -3.27905 -3.83924 1.16086 -3.52529 -3.31923 1.25113 -3.76376 -2.75128 1.33523 -3.99494 -2.13538 1.41236 -4.21926 -1.47153 1.48191 -4.43704 -0.759741 1.54341 -4.64858 1.30819e-16 0.328949 -1.9254 -6.56337 0.377192 -2.12123 -6.30005 0.426423 -2.31224 -6.00888 0.474039 -2.49909 -5.68985 0.518299 -2.68226 -5.34298 0.558008 -2.86206 -4.96825 0.592334 -3.03873 -4.56568 0.620689 -3.21246 -4.13525 0.685139 -3.45967 -3.66998 0.75043 -3.70051 -3.16288 0.81442 -3.93554 -2.61396 0.875441 -4.16521 -2.02321 0.932184 -4.38992 -1.39063 0.983615 -4.60994 -0.716231 1.02892 -4.82554 6.15879e-17 0.177987 -2.09373 -6.38601 0.180824 -2.28546 -6.10875 0.191866 -2.47395 -5.80649 0.206264 -2.65981 -5.47922 0.22086 -2.84344 -5.12694 0.233514 -3.02509 -4.74966 0.242738 -3.20497 -4.34737 0.247468 -3.38322 -3.92008 0.275852 -3.61129 -3.46311 0.311511 -3.83567 -2.97179 0.351249 -4.05678 -2.44613 0.392576 -4.27493 -1.88611 0.433526 -4.49038 -1.29176 0.472534 -4.70332 -0.663051 0.508341 -4.91392 1.5918e-17 0.0484011 -2.28343 -6.1764 -0.0116603 -2.46196 -5.88267 -0.0503846 -2.64048 -5.5673 -0.0771971 -2.81901 -5.23028 -0.0979349 -2.99753 -4.87162 -0.116406 -3.17606 -4.49132 -0.1352 -3.35459 -4.08938 -0.15614 -3.53311 -3.66579 -0.163741 -3.72666 -3.21862 -0.155176 -3.92021 -2.74595 -0.135066 -4.11376 -2.24777 -0.106972 -4.30731 -1.72409 -0.0736881 -4.50085 -1.1749 -0.037435 -4.6944 -0.600203 -3.07473e-16 -4.88795 0 2.09682 -0.0501543 -5.68381 2.24968 0.0140874 -5.4106 2.40255 0.0540879 -5.11765 2.55542 0.079802 -4.80498 2.70829 0.0973946 -4.47258 2.86115 0.110888 -4.12044 3.01402 0.123017 -3.74858 3.16689 0.135707 -3.35699 3.30546 0.144911 -2.94437 3.44402 0.139377 -2.50944 3.58259 0.122986 -2.05218 3.72115 0.0987349 -1.57261 3.85972 0.0689699 -1.07073 3.99829 0.0355575 -0.546522 4.13685 -5.20452e-16 0 1.92198 -0.167698 -5.87878 2.08991 -0.163586 -5.62086 2.25457 -0.170175 -5.34 2.41663 -0.182218 -5.03622 2.5765 -0.196288 -4.7095 2.73448 -0.210063 -4.35985 2.89078 -0.221921 -3.98728 3.04555 -0.230697 -3.59177 3.21349 -0.248606 -3.16963 3.37847 -0.273749 -2.71717 3.54082 -0.303421 -2.23439 3.70082 -0.335513 -1.72128 3.85867 -0.368357 -1.17784 4.01456 -0.400623 -0.604085 4.16861 -0.431239 1.17031e-16 1.76707 -0.305173 -6.04375 1.94081 -0.344401 -5.79877 2.10974 -0.386711 -5.52814 2.2746 -0.429211 -5.23188 2.43589 -0.469953 -4.90997 2.59399 -0.507595 -4.56243 2.74913 -0.541192 -4.18925 2.90154 -0.570067 -3.79043 3.08616 -0.615612 -3.36024 3.26566 -0.662928 -2.89295 3.44053 -0.71019 -2.38856 3.61115 -0.755969 -1.84707 3.77784 -0.799143 -1.26848 3.94085 -0.838822 -0.652791 4.10039 -0.874296 2.20047e-16 1.62169 -0.452172 -6.17873 1.79585 -0.524074 -5.94433 1.96432 -0.59458 -5.68207 2.12776 -0.662076 -5.39196 2.28663 -0.725467 -5.074 2.44129 -0.783999 -4.72818 2.592 -0.837153 -4.3545 2.73894 -0.884569 -3.95297 2.93057 -0.956963 -3.5162 3.11549 -1.02719 -3.03677 3.29422 -1.09408 -2.51471 3.46718 -1.15673 -1.95 3.63472 -1.21444 -1.34264 3.79712 -1.26667 -0.692642 3.95463 -1.31301 3.00518e-16 1.48011 -0.602972 -6.28371 1.65115 -0.700264 -6.05754 1.81591 -0.793485 -5.8018 1.97493 -0.881768 -5.51647 2.12861 -0.964532 -5.20157 2.27726 -1.04139 -4.85709 2.42111 -1.1121 -4.48303 2.56035 -1.1765 -4.0794 2.75153 -1.27415 -3.63749 2.93488 -1.36685 -3.14863 3.11087 -1.45391 -2.61282 3.27992 -1.53482 -2.03005 3.44235 -1.60921 -1.40032 3.59846 -1.6768 -0.723637 3.74849 -1.7374 3.5348e-16 1.33904 -0.754276 -6.3587 1.50428 -0.871705 -6.13841 1.66284 -0.983496 -5.88732 1.81514 -1.08924 -5.60541 1.9615 -1.18869 -5.2927 2.10215 -1.28169 -4.94917 2.23732 -1.36817 -4.57484 2.36716 -1.44811 -4.1697 2.5521 -1.56892 -3.72413 2.72848 -1.68286 -3.22853 2.89672 -1.78962 -2.6829 3.05717 -1.88899 -2.08722 3.21013 -1.98081 -1.44152 3.35586 -2.06503 -0.745777 3.49461 -2.14161 3.77133e-16 1.19657 -0.904189 -6.40369 1.35369 -1.03779 -6.18693 1.50391 -1.16491 -5.93863 1.64753 -1.28543 -5.65877 1.78475 -1.39933 -5.34737 1.91578 -1.5066 -5.00442 2.04077 -1.60728 -4.62992 2.15988 -1.70145 -4.22388 2.33394 -1.84295 -3.77612 2.49915 -1.97637 -3.27647 2.6558 -2.10167 -2.72494 2.80417 -2.21885 -2.12153 2.9445 -2.32794 -1.46624 3.07702 -2.42901 -0.75906 3.20194 -2.52213 3.72443e-16 1.05172 -1.05172 -6.41869 1.19838 -1.19838 -6.2031 1.33818 -1.33818 -5.95573 1.47124 -1.47124 -5.67656 1.59766 -1.59766 -5.3656 1.71756 -1.71756 -5.02284 1.83105 -1.83105 -4.64828 1.93826 -1.93826 -4.24194 2.09765 -2.09765 -3.79344 2.24832 -2.24832 -3.29245 2.39044 -2.39044 -2.73896 2.52415 -2.52415 -2.13297 2.64962 -2.64962 -1.47448 2.76701 -2.76701 -0.763488 2.87647 -2.87647 3.42753e-16 0.904189 -1.19657 -6.40369 1.03779 -1.35369 -6.18693 1.16491 -1.50391 -5.93863 1.28543 -1.64753 -5.65877 1.39933 -1.78475 -5.34737 1.5066 -1.91578 -5.00442 1.60728 -2.04077 -4.62992 1.70145 -2.15988 -4.22388 1.84295 -2.33394 -3.77612 1.97637 -2.49915 -3.27647 2.10167 -2.6558 -2.72494 2.21885 -2.80417 -2.12153 2.32794 -2.9445 -1.46624 2.42901 -3.07702 -0.75906 2.52213 -3.20194 2.9337e-16 0.754276 -1.33904 -6.3587 0.871705 -1.50428 -6.13841 0.983496 -1.66284 -5.88732 1.08924 -1.81514 -5.60541 1.18869 -1.9615 -5.2927 1.28169 -2.10215 -4.94917 1.36817 -2.23732 -4.57484 1.44811 -2.36716 -4.1697 1.56892 -2.5521 -3.72413 1.68286 -2.72848 -3.22853 1.78962 -2.89672 -2.6829 1.88899 -3.05717 -2.08722 1.98081 -3.21013 -1.44152 2.06503 -3.35586 -0.745777 2.14161 -3.49461 2.31119e-16 0.602972 -1.48011 -6.28371 0.700264 -1.65115 -6.05754 0.793485 -1.81591 -5.8018 0.881768 -1.97493 -5.51647 0.964532 -2.12861 -5.20157 1.04139 -2.27726 -4.85709 1.1121 -2.42111 -4.48303 1.1765 -2.56035 -4.0794 1.27415 -2.75153 -3.63749 1.36685 -2.93488 -3.14863 1.45391 -3.11087 -2.61282 1.53482 -3.27992 -2.03005 1.60921 -3.44235 -1.40032 1.6768 -3.59846 -0.723637 1.7374 -3.74849 1.63836e-16 0.452172 -1.62169 -6.17873 0.524074 -1.79585 -5.94433 0.59458 -1.96432 -5.68207 0.662076 -2.12776 -5.39196 0.725467 -2.28663 -5.074 0.783999 -2.44129 -4.72818 0.837153 -2.592 -4.3545 0.884569 -2.73894 -3.95297 0.956963 -2.93057 -3.5162 1.02719 -3.11549 -3.03677 1.09408 -3.29422 -2.51471 1.15673 -3.46718 -1.95 1.21444 -3.63472 -1.34264 1.26667 -3.79712 -0.692642 1.31301 -3.95463 9.97771e-17 0.305173 -1.76707 -6.04375 0.344401 -1.94081 -5.79877 0.386711 -2.10974 -5.52814 0.429211 -2.2746 -5.23188 0.469953 -2.43589 -4.90997 0.507595 -2.59399 -4.56243 0.541192 -2.74913 -4.18925 0.570067 -2.90154 -3.79043 0.615612 -3.08616 -3.36024 0.662928 -3.26566 -2.89295 0.71019 -3.44053 -2.38856 0.755969 -3.61115 -1.84707 0.799143 -3.77784 -1.26848 0.838822 -3.94085 -0.652791 0.874296 -4.10039 4.69191e-17 0.167698 -1.92198 -5.87878 0.163586 -2.08991 -5.62086 0.170175 -2.25457 -5.34 0.182218 -2.41663 -5.03622 0.196288 -2.5765 -4.7095 0.210063 -2.73448 -4.35985 0.221921 -2.89078 -3.98728 0.230697 -3.04555 -3.59177 0.248606 -3.21349 -3.16963 0.273749 -3.37847 -2.71717 0.303421 -3.54082 -2.23439 0.335513 -3.70082 -1.72128 0.368357 -3.85867 -1.17784 0.400623 -4.01456 -0.604085 0.431239 -4.16861 1.21067e-17 0.0501543 -2.09682 -5.68381 -0.0140874 -2.24968 -5.4106 -0.0540879 -2.40255 -5.11765 -0.079802 -2.55542 -4.80498 -0.0973946 -2.70829 -4.47258 -0.110888 -2.86115 -4.12044 -0.123017 -3.01402 -3.74858 -0.135707 -3.16689 -3.35699 -0.144911 -3.30546 -2.94437 -0.139377 -3.44402 -2.50944 -0.122986 -3.58259 -2.05218 -0.0987349 -3.72115 -1.57261 -0.0689699 -3.85972 -1.07073 -0.0355575 -3.99829 -0.546522 -5.20452e-16 -4.13685 0 1.91984 -0.0512055 -5.19123 2.04946 0.0160556 -4.93853 2.17908 0.0568065 -4.66801 2.30871 0.0813677 -4.37968 2.43833 0.0961303 -4.07353 2.56795 0.105264 -3.74956 2.69758 0.111604 -3.40778 2.8272 0.117148 -3.04819 2.91772 0.127615 -2.67012 3.00823 0.124696 -2.27292 3.09875 0.111611 -1.85659 3.18927 0.0908413 -1.42114 3.27978 0.0643351 -0.966555 3.3703 0.0336395 -0.492842 3.46082 -8.70801e-16 0 1.75921 -0.157525 -5.37156 1.90535 -0.147505 -5.13296 2.04823 -0.150225 -4.87352 2.18854 -0.160142 -4.59321 2.32673 -0.173632 -4.29206 2.46312 -0.188236 -3.97005 2.59792 -0.20223 -3.62718 2.73129 -0.214377 -3.26346 2.84653 -0.223218 -2.87616 2.95944 -0.239191 -2.46256 3.07031 -0.260034 -2.02265 3.17936 -0.283978 -1.55645 3.28677 -0.309627 -1.06393 3.39268 -0.335863 -0.545118 3.49721 -0.361783 8.6853e-17 1.6171 -0.282361 -5.52414 1.77045 -0.313539 -5.29748 1.91905 -0.349562 -5.0474 2.06369 -0.387312 -4.7739 2.2049 -0.424687 -4.47697 2.34307 -0.460228 -4.15661 2.47848 -0.4929 -3.81283 2.61134 -0.52196 -3.44562 2.74101 -0.551006 -3.05051 2.86668 -0.5826 -2.62302 2.98876 -0.615197 -2.16317 3.10757 -0.64759 -1.67094 3.22336 -0.678823 -1.14633 3.33636 -0.708137 -0.589352 3.44674 -0.734923 1.63627e-16 1.48389 -0.4161 -5.64898 1.63898 -0.478255 -5.43209 1.78851 -0.54051 -5.18968 1.93319 -0.601088 -4.92173 2.07355 -0.658776 -4.62826 2.20994 -0.712728 -4.30925 2.34264 -0.762352 -3.96472 2.47186 -0.80723 -3.59465 2.60812 -0.856186 -3.19315 2.73916 -0.904356 -2.75431 2.86543 -0.95074 -2.27813 2.98726 -0.994562 -1.76461 3.10495 -1.03522 -1.21375 3.21874 -1.07223 -0.625544 3.32883 -1.10523 2.23774e-16 1.3543 -0.553457 -5.74607 1.50748 -0.639586 -5.53679 1.65461 -0.722897 -5.30033 1.7963 -0.802412 -5.03671 1.93298 -0.877465 -4.74593 2.06496 -0.947603 -4.42797 2.1925 -1.01252 -4.08285 2.3158 -1.07202 -3.71057 2.45262 -1.13984 -3.3041 2.58337 -1.2045 -2.85643 2.70848 -1.26539 -2.36755 2.82827 -1.32207 -1.83747 2.94303 -1.3742 -1.26618 3.05299 -1.42153 -0.653692 3.15836 -1.46388 2.63466e-16 1.22528 -0.691387 -5.81543 1.37379 -0.796415 -5.61157 1.516 -0.896843 -5.37937 1.65234 -0.992193 -5.11884 1.78315 -1.08216 -4.82998 1.90871 -1.16654 -4.51277 2.02923 -1.24522 -4.16724 2.14488 -1.31815 -3.79337 2.27757 -1.40333 -3.38335 2.4037 -1.48368 -2.92936 2.52361 -1.55892 -2.43142 2.6376 -1.62884 -1.88951 2.74591 -1.69331 -1.30363 2.84876 -1.75225 -0.673799 2.94633 -1.8056 2.81276e-16 1.09509 -0.828139 -5.85704 1.23655 -0.948214 -5.65644 1.37163 -1.06265 -5.4268 1.50063 -1.17129 -5.16812 1.62378 -1.27409 -4.88041 1.74126 -1.37101 -4.56366 1.85324 -1.46206 -4.21787 1.95988 -1.5473 -3.84305 2.08475 -1.64799 -3.4309 2.20289 -1.74276 -2.97313 2.31456 -1.83157 -2.46974 2.41998 -1.91439 -1.92073 2.51933 -1.99125 -1.32611 2.6128 -2.06216 -0.685863 2.70056 -2.1272 2.77879e-16 0.9628 -0.9628 -5.87091 1.09486 -1.09486 -5.67139 1.22073 -1.22073 -5.4426 1.34052 -1.34052 -5.18455 1.45433 -1.45433 -4.89722 1.56225 -1.56225 -4.58062 1.6644 -1.6644 -4.23475 1.76087 -1.76087 -3.85961 1.87491 -1.87491 -3.44674 1.98242 -1.98242 -2.98771 2.08353 -2.08353 -2.48251 2.17836 -2.17836 -1.93114 2.26703 -2.26703 -1.3336 2.34965 -2.34965 -0.689884 2.42634 -2.42634 2.55757e-16 0.828139 -1.09509 -5.85704 0.948214 -1.23655 -5.65644 1.06265 -1.37163 -5.4268 1.17129 -1.50063 -5.16812 1.27409 -1.62378 -4.88041 1.37101 -1.74126 -4.56366 1.46206 -1.85324 -4.21787 1.5473 -1.95988 -3.84305 1.64799 -2.08475 -3.4309 1.74276 -2.20289 -2.97313 1.83157 -2.31456 -2.46974 1.91439 -2.41998 -1.92073 1.99125 -2.51933 -1.32611 2.06216 -2.6128 -0.685863 2.1272 -2.70056 2.18882e-16 0.691387 -1.22528 -5.81543 0.796415 -1.37379 -5.61157 0.896843 -1.516 -5.37937 0.992193 -1.65234 -5.11884 1.08216 -1.78315 -4.82998 1.16654 -1.90871 -4.51277 1.24522 -2.02923 -4.16724 1.31815 -2.14488 -3.79337 1.40333 -2.27757 -3.38335 1.48368 -2.4037 -2.92936 1.55892 -2.52361 -2.43142 1.62884 -2.6376 -1.88951 1.69331 -2.74591 -1.30363 1.75225 -2.84876 -0.673799 1.8056 -2.94633 1.72374e-16 0.553457 -1.3543 -5.74607 0.639586 -1.50748 -5.53679 0.722897 -1.65461 -5.30033 0.802412 -1.7963 -5.03671 0.877465 -1.93298 -4.74593 0.947603 -2.06496 -4.42797 1.01252 -2.1925 -4.08285 1.07202 -2.3158 -3.71057 1.13984 -2.45262 -3.3041 1.2045 -2.58337 -2.85643 1.26539 -2.70848 -2.36755 1.32207 -2.82827 -1.83747 1.3742 -2.94303 -1.26618 1.42153 -3.05299 -0.653692 1.46388 -3.15836 1.22115e-16 0.4161 -1.48389 -5.64898 0.478255 -1.63898 -5.43209 0.54051 -1.78851 -5.18968 0.601088 -1.93319 -4.92173 0.658776 -2.07355 -4.62826 0.712728 -2.20994 -4.30925 0.762352 -2.34264 -3.96472 0.80723 -2.47186 -3.59465 0.856186 -2.60812 -3.19315 0.904356 -2.73916 -2.75431 0.95074 -2.86543 -2.27813 0.994562 -2.98726 -1.76461 1.03522 -3.10495 -1.21375 1.07223 -3.21874 -0.625544 1.10523 -3.32883 7.4297e-17 0.282361 -1.6171 -5.52414 0.313539 -1.77045 -5.29748 0.349562 -1.91905 -5.0474 0.387312 -2.06369 -4.7739 0.424687 -2.2049 -4.47697 0.460228 -2.34307 -4.15661 0.4929 -2.47848 -3.81283 0.52196 -2.61134 -3.44562 0.551006 -2.74101 -3.05051 0.5826 -2.86668 -2.62302 0.615197 -2.98876 -2.16317 0.64759 -3.10757 -1.67094 0.678823 -3.22336 -1.14633 0.708137 -3.33636 -0.589352 0.734923 -3.44674 3.48889e-17 0.157525 -1.75921 -5.37156 0.147505 -1.90535 -5.13296 0.150225 -2.04823 -4.87352 0.160142 -2.18854 -4.59321 0.173632 -2.32673 -4.29206 0.188236 -2.46312 -3.97005 0.20223 -2.59792 -3.62718 0.214377 -2.73129 -3.26346 0.223218 -2.84653 -2.87616 0.239191 -2.95944 -2.46256 0.260034 -3.07031 -2.02265 0.283978 -3.17936 -1.55645 0.309627 -3.28677 -1.06393 0.335863 -3.39268 -0.545118 0.361783 -3.49721 8.98486e-18 0.0512055 -1.91984 -5.19123 -0.0160556 -2.04946 -4.93853 -0.0568065 -2.17908 -4.66801 -0.0813677 -2.30871 -4.37968 -0.0961303 -2.43833 -4.07353 -0.105264 -2.56795 -3.74956 -0.111604 -2.69758 -3.40778 -0.117148 -2.8272 -3.04819 -0.127615 -2.91772 -2.67012 -0.124696 -3.00823 -2.27292 -0.111611 -3.09875 -1.85659 -0.0908413 -3.18927 -1.42114 -0.0643351 -3.27978 -0.966555 -0.0336395 -3.3703 -0.492842 2.177e-16 -3.46082 0 1.7525 -0.0515548 -4.69865 1.86129 0.0175649 -4.46646 1.97008 0.0585406 -4.21837 2.07888 0.0818942 -3.95437 2.18767 0.0941419 -3.67448 2.29646 0.0995343 -3.37868 2.40525 0.100963 -3.06699 2.51404 0.100463 -2.73939 2.56344 0.111854 -2.39587 2.61284 0.111135 -2.0364 2.66224 0.100938 -1.661 2.71164 0.083291 -1.26966 2.76104 0.0597837 -0.862382 2.81044 0.0316809 -0.439161 2.85984 -5.39689e-16 0 1.60542 -0.147467 -4.86433 1.73177 -0.132581 -4.64507 1.85491 -0.132016 -4.40703 1.97554 -0.140036 -4.15021 2.09413 -0.152891 -3.87461 2.21101 -0.168031 -3.58024 2.32638 -0.183666 -3.26708 2.44043 -0.198507 -2.93515 2.51039 -0.199689 -2.58269 2.57859 -0.207838 -2.20794 2.64525 -0.221086 -1.81092 2.71056 -0.237971 -1.39161 2.77467 -0.257336 -0.950022 2.83769 -0.278253 -0.486152 2.89971 -0.299973 6.2621e-17 1.47547 -0.260511 -5.00452 1.61015 -0.284605 -4.7962 1.74017 -0.314973 -4.56667 1.86635 -0.348343 -4.31592 1.98926 -0.382501 -4.04396 2.1093 -0.415905 -3.75079 2.22676 -0.447459 -3.4364 2.34186 -0.476368 -3.1008 2.42422 -0.491323 -2.74077 2.50357 -0.509444 -2.35309 2.58022 -0.529442 -1.93777 2.65445 -0.550302 -1.4948 2.72648 -0.571223 -1.02418 2.79648 -0.59156 -0.525913 2.86459 -0.610796 1.18253e-16 1.35381 -0.38184 -5.11922 1.4913 -0.435171 -4.91985 1.62341 -0.489856 -4.69728 1.75088 -0.544001 -4.4515 1.87425 -0.596304 -4.18251 1.99391 -0.645852 -3.89032 2.11014 -0.691999 -3.57493 2.22318 -0.73428 -3.23633 2.3117 -0.763128 -2.87011 2.39632 -0.792351 -2.47185 2.47738 -0.821103 -2.04156 2.55518 -0.848719 -1.57922 2.62996 -0.874681 -1.08485 2.7019 -0.898575 -0.558445 2.77118 -0.92008 1.61989e-16 1.23557 -0.506589 -5.20844 1.37218 -0.58246 -5.01603 1.50303 -0.656597 -4.79887 1.62872 -0.727933 -4.55695 1.74972 -0.79574 -4.29028 1.86637 -0.859511 -3.99885 1.97891 -0.918898 -3.68268 2.08758 -0.973663 -3.34174 2.17748 -1.01584 -2.97071 2.26289 -1.05637 -2.56422 2.34413 -1.09474 -2.12228 2.42148 -1.13055 -1.64489 2.49516 -1.16352 -1.13204 2.56538 -1.19341 -0.583748 2.63229 -1.22005 1.90941e-16 1.11794 -0.631957 -5.27216 1.25089 -0.725497 -5.08473 1.3779 -0.815356 -4.87143 1.49945 -0.901 -4.63227 1.61589 -0.982077 -4.36725 1.7275 -1.05835 -4.07638 1.83448 -1.12968 -3.75964 1.93703 -1.19597 -3.41704 2.02463 -1.25047 -3.04256 2.10742 -1.30189 -2.6302 2.18566 -1.34997 -2.17994 2.2596 -1.39454 -1.69179 2.32943 -1.43545 -1.16575 2.39532 -1.47262 -0.601821 2.45744 -1.506 2.04003e-16 0.999325 -0.756332 -5.3104 1.1262 -0.863821 -5.12594 1.24719 -0.966432 -4.91497 1.3626 -1.064 -4.67747 1.47267 -1.15642 -4.41344 1.57758 -1.24365 -4.12289 1.6775 -1.32569 -3.80581 1.77257 -1.40256 -3.46221 1.85498 -1.46806 -3.08568 1.93253 -1.52952 -2.66978 2.00541 -1.58687 -2.21453 2.07379 -1.64009 -1.71993 2.13783 -1.68918 -1.18598 2.19767 -1.73414 -0.612665 2.25342 -1.775 2.01626e-16 0.878875 -0.878875 -5.32314 0.997327 -0.997327 -5.13968 1.11022 -1.11022 -4.92948 1.21765 -1.21765 -4.69253 1.3197 -1.3197 -4.42883 1.41646 -1.41646 -4.13839 1.50803 -1.50803 -3.82121 1.59451 -1.59451 -3.47727 1.66942 -1.66942 -3.10005 1.73971 -1.73971 -2.68298 1.80547 -1.80547 -2.22607 1.86678 -1.86678 -1.72931 1.92373 -1.92373 -1.19272 1.9764 -1.9764 -0.61628 2.02489 -2.02489 1.856e-16 0.756332 -0.999325 -5.3104 0.863821 -1.1262 -5.12594 0.966432 -1.24719 -4.91497 1.064 -1.3626 -4.67747 1.15642 -1.47267 -4.41344 1.24365 -1.57758 -4.12289 1.32569 -1.6775 -3.80581 1.40256 -1.77257 -3.46221 1.46806 -1.85498 -3.08568 1.52952 -1.93253 -2.66978 1.58687 -2.00541 -2.21453 1.64009 -2.07379 -1.71993 1.68918 -2.13783 -1.18598 1.73414 -2.19767 -0.612665 1.775 -2.25342 1.58819e-16 0.631957 -1.11794 -5.27216 0.725497 -1.25089 -5.08473 0.815356 -1.3779 -4.87143 0.901 -1.49945 -4.63227 0.982077 -1.61589 -4.36725 1.05835 -1.7275 -4.07638 1.12968 -1.83448 -3.75964 1.19597 -1.93703 -3.41704 1.25047 -2.02463 -3.04256 1.30189 -2.10742 -2.6302 1.34997 -2.18566 -2.17994 1.39454 -2.2596 -1.69179 1.43545 -2.32943 -1.16575 1.47262 -2.39532 -0.601821 1.506 -2.45744 1.25019e-16 0.506589 -1.23557 -5.20844 0.58246 -1.37218 -5.01603 0.656597 -1.50303 -4.79887 0.727933 -1.62872 -4.55695 0.79574 -1.74972 -4.29028 0.859511 -1.86637 -3.99885 0.918898 -1.97891 -3.68268 0.973663 -2.08758 -3.34174 1.01584 -2.17748 -2.97071 1.05637 -2.26289 -2.56422 1.09474 -2.34413 -2.12228 1.13055 -2.42148 -1.64489 1.16352 -2.49516 -1.13204 1.19341 -2.56538 -0.583748 1.22005 -2.63229 8.85001e-17 0.38184 -1.35381 -5.11922 0.435171 -1.4913 -4.91985 0.489856 -1.62341 -4.69728 0.544001 -1.75088 -4.4515 0.596304 -1.87425 -4.18251 0.645852 -1.99391 -3.89032 0.691999 -2.11014 -3.57493 0.73428 -2.22318 -3.23633 0.763128 -2.3117 -2.87011 0.792351 -2.39632 -2.47185 0.821103 -2.47738 -2.04156 0.848719 -2.55518 -1.57922 0.874681 -2.62996 -1.08485 0.898575 -2.7019 -0.558445 0.92008 -2.77118 5.37832e-17 0.260511 -1.47547 -5.00452 0.284605 -1.61015 -4.7962 0.314973 -1.74017 -4.56667 0.348343 -1.86635 -4.31592 0.382501 -1.98926 -4.04396 0.415905 -2.1093 -3.75079 0.447459 -2.22676 -3.4364 0.476368 -2.34186 -3.1008 0.491323 -2.42422 -2.74077 0.509444 -2.50357 -2.35309 0.529442 -2.58022 -1.93777 0.550302 -2.65445 -1.4948 0.571223 -2.72648 -1.02418 0.59156 -2.79648 -0.525913 0.610796 -2.86459 2.52141e-17 0.147467 -1.60542 -4.86433 0.132581 -1.73177 -4.64507 0.132016 -1.85491 -4.40703 0.140036 -1.97554 -4.15021 0.152891 -2.09413 -3.87461 0.168031 -2.21101 -3.58024 0.183666 -2.32638 -3.26708 0.198507 -2.44043 -2.93515 0.199689 -2.51039 -2.58269 0.207838 -2.57859 -2.20794 0.221086 -2.64525 -1.81092 0.237971 -2.71056 -1.39161 0.257336 -2.77467 -0.950022 0.278253 -2.83769 -0.486152 0.299973 -2.89971 6.47809e-18 0.0515548 -1.7525 -4.69865 -0.0175649 -1.86129 -4.46646 -0.0585406 -1.97008 -4.21837 -0.0818942 -2.07888 -3.95437 -0.0941419 -2.18767 -3.67448 -0.0995343 -2.29646 -3.37868 -0.100963 -2.40525 -3.06699 -0.100463 -2.51404 -2.73939 -0.111854 -2.56344 -2.39587 -0.111135 -2.61284 -2.0364 -0.100938 -2.66224 -1.661 -0.083291 -2.71164 -1.26966 -0.0597837 -2.76104 -0.862382 -0.0316809 -2.81044 -0.439161 -1.79896e-16 -2.85984 0 1.5948 -0.051202 -4.20607 1.68517 0.0186152 -3.99439 1.77555 0.05929 -3.76872 1.86592 0.0813817 -3.52907 1.9563 0.0914293 -3.27543 2.04667 0.093699 -3.0078 2.13705 0.0910922 -2.72619 2.22742 0.0856513 -2.43059 2.24264 0.097626 -2.12161 2.25785 0.098694 -1.79989 2.27306 0.0909695 -1.46541 2.28828 0.0760838 -1.11819 2.30349 0.0553158 -0.75821 2.31871 0.0296817 -0.38548 2.33392 0 0 1.46061 -0.137526 -4.3571 1.56919 -0.118814 -4.15718 1.67463 -0.115547 -3.94054 1.77764 -0.121901 -3.70721 1.8787 -0.134066 -3.45717 1.97813 -0.149449 -3.19043 2.07617 -0.166228 -2.90699 2.17297 -0.183088 -2.60684 2.20509 -0.178019 -2.28922 2.23592 -0.17969 -1.95333 2.26565 -0.186578 -1.59918 2.29443 -0.197492 -1.22678 2.32237 -0.211484 -0.836111 2.34958 -0.227795 -0.427185 2.37612 -0.245808 4.36167e-17 1.3422 -0.239625 -4.48491 1.45991 -0.2576 -4.29492 1.57309 -0.282947 -4.08593 1.6826 -0.312304 -3.85794 1.789 -0.343394 -3.61095 1.8927 -0.374627 -3.34496 1.99399 -0.404868 -3.05997 2.09311 -0.43329 -2.75598 2.13581 -0.436563 -2.43103 2.17632 -0.443462 -2.08316 2.21492 -0.452924 -1.71237 2.25182 -0.464107 -1.31866 2.2872 -0.476342 -0.902027 2.32121 -0.48909 -0.462474 2.35395 -0.501916 8.25969e-17 1.23145 -0.349392 -4.58947 1.35283 -0.394822 -4.40762 1.46903 -0.442619 -4.20488 1.58082 -0.490815 -3.98127 1.68875 -0.538052 -3.73677 1.79322 -0.583373 -3.4714 1.89452 -0.626093 -3.18514 1.99289 -0.665719 -2.87801 2.04131 -0.677791 -2.54707 2.08695 -0.691178 -2.18939 2.13008 -0.705169 -1.80498 2.17094 -0.719204 -1.39384 2.20973 -0.732839 -0.955959 2.2466 -0.745718 -0.491346 2.28168 -0.757558 1.13369e-16 1.12391 -0.462368 -4.6708 1.24527 -0.528889 -4.49527 1.36115 -0.594583 -4.2974 1.47219 -0.658331 -4.07719 1.57885 -0.719356 -3.83463 1.68148 -0.777117 -3.56974 1.78035 -0.831233 -3.2825 1.87567 -0.881439 -2.97292 1.92614 -0.902139 -2.63731 1.97343 -0.922455 -2.27201 2.01782 -0.941949 -1.87701 2.05953 -0.96028 -1.45231 2.09875 -0.977181 -0.997905 2.13562 -0.992446 -0.513803 2.17028 -1.00591 1.33814e-16 1.01701 -0.575986 -4.72889 1.13557 -0.658952 -4.55788 1.24857 -0.739035 -4.36349 1.3565 -0.815664 -4.1457 1.45971 -0.888452 -3.90453 1.5585 -0.957139 -3.63998 1.65307 -1.02155 -3.35204 1.74361 -1.08159 -3.04071 1.79329 -1.11034 -2.70178 1.83963 -1.13748 -2.33103 1.88286 -1.16278 -1.92846 1.92315 -1.18607 -1.49407 1.96068 -1.20723 -1.02787 1.99557 -1.22615 -0.529843 2.02794 -1.24278 1.43096e-16 0.909283 -0.688769 -4.76375 1.02264 -0.784612 -4.59545 1.13059 -0.876268 -4.40314 1.23344 -0.963542 -4.18681 1.33142 -1.04632 -3.94647 1.42473 -1.12453 -3.68212 1.51353 -1.19817 -3.39376 1.59795 -1.26722 -3.08138 1.64465 -1.30316 -2.74045 1.68807 -1.33663 -2.36644 1.72835 -1.36758 -1.95933 1.76562 -1.39595 -1.51913 1.80001 -1.42174 -1.04584 1.83161 -1.44492 -0.539467 1.86053 -1.46552 1.41501e-16 0.799948 -0.799948 -4.77537 0.905785 -0.905785 -4.60797 1.00665 -1.00665 -4.41635 1.10261 -1.10261 -4.20051 1.19377 -1.19377 -3.96045 1.28019 -1.28019 -3.69617 1.36196 -1.36196 -3.40767 1.43917 -1.43917 -3.09494 1.48118 -1.48118 -2.75335 1.52018 -1.52018 -2.37824 1.55624 -1.55624 -1.96962 1.5894 -1.5894 -1.52748 1.61973 -1.61973 -1.05184 1.64728 -1.64728 -0.542675 1.67212 -1.67212 1.30276e-16 0.688769 -0.909283 -4.76375 0.784612 -1.02264 -4.59545 0.876268 -1.13059 -4.40314 0.963542 -1.23344 -4.18681 1.04632 -1.33142 -3.94647 1.12453 -1.42473 -3.68212 1.19817 -1.51353 -3.39376 1.26722 -1.59795 -3.08138 1.30316 -1.64465 -2.74045 1.33663 -1.68807 -2.36644 1.36758 -1.72835 -1.95933 1.39595 -1.76562 -1.51913 1.42174 -1.80001 -1.04584 1.44492 -1.83161 -0.539467 1.46552 -1.86053 1.11459e-16 0.575986 -1.01701 -4.72889 0.658952 -1.13557 -4.55788 0.739035 -1.24857 -4.36349 0.815664 -1.3565 -4.1457 0.888452 -1.45971 -3.90453 0.957139 -1.5585 -3.63998 1.02155 -1.65307 -3.35204 1.08159 -1.74361 -3.04071 1.11034 -1.79329 -2.70178 1.13748 -1.83963 -2.33103 1.16278 -1.88286 -1.92846 1.18607 -1.92315 -1.49407 1.20723 -1.96068 -1.02787 1.22615 -1.99557 -0.529843 1.24278 -2.02794 8.76935e-17 0.462368 -1.12391 -4.6708 0.528889 -1.24527 -4.49527 0.594583 -1.36115 -4.2974 0.658331 -1.47219 -4.07719 0.719356 -1.57885 -3.83463 0.777117 -1.68148 -3.56974 0.831233 -1.78035 -3.2825 0.881439 -1.87567 -2.97292 0.902139 -1.92614 -2.63731 0.922455 -1.97343 -2.27201 0.941949 -2.01782 -1.87701 0.96028 -2.05953 -1.45231 0.977181 -2.09875 -0.997905 0.992446 -2.13562 -0.513803 1.00591 -2.17028 6.20219e-17 0.349392 -1.23145 -4.58947 0.394822 -1.35283 -4.40762 0.442619 -1.46903 -4.20488 0.490815 -1.58082 -3.98127 0.538052 -1.68875 -3.73677 0.583373 -1.79322 -3.4714 0.626093 -1.89452 -3.18514 0.665719 -1.99289 -2.87801 0.677791 -2.04131 -2.54707 0.691178 -2.08695 -2.18939 0.705169 -2.13008 -1.80498 0.719204 -2.17094 -1.39384 0.732839 -2.20973 -0.955959 0.745718 -2.2466 -0.491346 0.757558 -2.28168 3.76405e-17 0.239625 -1.3422 -4.48491 0.2576 -1.45991 -4.29492 0.282947 -1.57309 -4.08593 0.312304 -1.6826 -3.85794 0.343394 -1.789 -3.61095 0.374627 -1.8927 -3.34496 0.404868 -1.99399 -3.05997 0.43329 -2.09311 -2.75598 0.436563 -2.13581 -2.43103 0.443462 -2.17632 -2.08316 0.452924 -2.21492 -1.71237 0.464107 -2.25182 -1.31866 0.476342 -2.2872 -0.902027 0.48909 -2.32121 -0.462474 0.501916 -2.35395 1.76116e-17 0.137526 -1.46061 -4.3571 0.118814 -1.56919 -4.15718 0.115547 -1.67463 -3.94054 0.121901 -1.77764 -3.70721 0.134066 -1.8787 -3.45717 0.149449 -1.97813 -3.19043 0.166228 -2.07617 -2.90699 0.183088 -2.17297 -2.60684 0.178019 -2.20509 -2.28922 0.17969 -2.23592 -1.95333 0.186578 -2.26565 -1.59918 0.197492 -2.29443 -1.22678 0.211484 -2.32237 -0.836111 0.227795 -2.34958 -0.427185 0.245808 -2.37612 4.51211e-18 0.051202 -1.5948 -4.20607 -0.0186152 -1.68517 -3.99439 -0.05929 -1.77555 -3.76872 -0.0813817 -1.86592 -3.52907 -0.0914293 -1.9563 -3.27543 -0.093699 -2.04667 -3.0078 -0.0910922 -2.13705 -2.72619 -0.0856513 -2.22742 -2.43059 -0.097626 -2.24264 -2.