<?xml version="1.0"?> 
<VTKFile type="StructuredGrid" version="0.1"> 
<StructuredGrid WholeExtent="0 29 0 29 0 29"> 
<Piece Extent="0 29 0 29 0 29"> 
<PointData>
<DataArray type="Float32" Name="efield" format="ascii" NumberOfComponents="3"> 
-1.90958e-14 -2.36742 -6.55628 0.0845245 -2.28868 -6.58924 0.168843 -2.20972 -6.61985 0.252954 -2.13057 -6.64811 0.33686 -2.0512 -6.67401 0.420559 -1.97163 -6.69755 0.504052 -1.89185 -6.71874 0.587338 -1.81187 -6.73758 0.670418 -1.73168 -6.75406 0.753291 -1.65128 -6.76819 0.835958 -1.57068 -6.77996 0.918419 -1.48987 -6.78938 1.00067 -1.40885 -6.79644 1.08272 -1.32763 -6.80115 1.16456 -1.2462 -6.8035 1.2462 -1.16456 -6.8035 1.32763 -1.08272 -6.80115 1.40885 -1.00067 -6.79644 1.48987 -0.918419 -6.78938 1.57068 -0.835958 -6.77996 1.65128 -0.753291 -6.76819 1.73168 -0.670418 -6.75406 1.81187 -0.587338 -6.73758 1.89185 -0.504052 -6.71874 1.97163 -0.420559 -6.69755 2.0512 -0.33686 -6.67401 2.13057 -0.252954 -6.64811 2.20972 -0.168843 -6.61985 2.28868 -0.0845245 -6.58924 2.36742 3.93019e-14 -6.55628 -0.0845245 -2.28868 -6.58924 -1.45666e-14 -2.20953 -6.62111 0.0843324 -2.1302 -6.6507 0.168473 -2.05067 -6.67801 0.252421 -1.97095 -6.70305 0.336177 -1.89103 -6.72581 0.41974 -1.81093 -6.74629 0.503112 -1.73063 -6.7645 0.586292 -1.65014 -6.78043 0.669279 -1.56946 -6.79409 0.752074 -1.48859 -6.80547 0.834677 -1.40752 -6.81457 0.917088 -1.32626 -6.8214 0.999307 -1.24481 -6.82595 1.08133 -1.16317 -6.82823 1.16317 -1.08133 -6.82823 1.24481 -0.999307 -6.82595 1.32626 -0.917088 -6.8214 1.40752 -0.834677 -6.81457 1.48859 -0.752074 -6.80547 1.56946 -0.669279 -6.79409 1.65014 -0.586292 -6.78043 1.73063 -0.503112 -6.7645 1.81093 -0.41974 -6.74629 1.89103 -0.336177 -6.72581 1.97095 -0.252421 -6.70305 2.05067 -0.168473 -6.67801 2.1302 -0.0843324 -6.6507 2.20953 2.99282e-14 -6.62111 2.28868 0.0845245 -6.58924 -0.168843 -2.20972 -6.61985 -0.0843324 -2.1302 -6.6507 -1.08349e-14 -2.05049 -6.67934 0.0841545 -1.9706 -6.70578 0.168131 -1.89054 -6.73001 0.25193 -1.8103 -6.75204 0.33555 -1.72988 -6.77187 0.418993 -1.64929 -6.7895 0.502258 -1.56851 -6.80492 0.585345 -1.48756 -6.81814 0.668254 -1.40643 -6.82915 0.750986 -1.32512 -6.83796 0.833539 -1.24364 -6.84457 0.915914 -1.16197 -6.84898 0.998112 -1.08013 -6.85118 1.08013 -0.998112 -6.85118 1.16197 -0.915914 -6.84898 1.24364 -0.833539 -6.84457 1.32512 -0.750986 -6.83796 1.40643 -0.668254 -6.82915 1.48756 -0.585345 -6.81814 1.56851 -0.502258 -6.80492 1.64929 -0.418993 -6.7895 1.72988 -0.33555 -6.77187 1.8103 -0.25193 -6.75204 1.89054 -0.168131 -6.73001 1.9706 -0.0841545 -6.70578 2.05049 2.10635e-14 -6.67934 2.1302 0.0843324 -6.6507 2.20972 0.168843 -6.61985 -0.252954 -2.13057 -6.64811 -0.168473 -2.05067 -6.67801 -0.0841545 -1.9706 -6.70578 -7.41857e-15 -1.89038 -6.73141 0.0839908 -1.80999 -6.7549 0.167818 -1.72943 -6.77626 0.251481 -1.64872 -6.79548 0.334981 -1.56784 -6.81257 0.418317 -1.48679 -6.82752 0.50149 -1.40558 -6.84034 0.584498 -1.32421 -6.85102 0.667343 -1.24268 -6.85956 0.750025 -1.16098 -6.86597 0.832543 -1.07911 -6.87024 0.914897 -0.997087 -6.87237 0.997087 -0.914897 -6.87237 1.07911 -0.832543 -6.87024 1.16098 -0.750025 -6.86597 1.24268 -0.667343 -6.85956 1.32421 -0.584498 -6.85102 1.40558 -0.50149 -6.84034 1.48679 -0.418317 -6.82752 1.56784 -0.334981 -6.81257 1.64872 -0.251481 -6.79548 1.72943 -0.167818 -6.77626 1.80999 -0.0839908 -6.7549 1.89038 1.29535e-14 -6.73141 1.9706 0.0841545 -6.70578 2.05067 0.168473 -6.67801 2.13057 0.252954 -6.64811 -0.33686 -2.0512 -6.67401 -0.252421 -1.97095 -6.70305 -0.168131 -1.89054 -6.73001 -0.0839908 -1.80999 -6.7549 -4.91821e-15 -1.72929 -6.77772 0.0838414 -1.64843 -6.79846 0.167533 -1.56743 -6.81713 0.251076 -1.48628 -6.83372 0.334469 -1.40498 -6.84824 0.417712 -1.32353 -6.86069 0.500806 -1.24193 -6.87106 0.583751 -1.16018 -6.87935 0.666546 -1.07828 -6.88558 0.749192 -0.996233 -6.88973 0.831689 -0.914036 -6.8918 0.914036 -0.831689 -6.8918 0.996233 -0.749192 -6.88973 1.07828 -0.666546 -6.88558 1.16018 -0.583751 -6.87935 1.24193 -0.500806 -6.87106 1.32353 -0.417712 -6.86069 1.40498 -0.334469 -6.84824 1.48628 -0.251076 -6.83372 1.56743 -0.167533 -6.81713 1.64843 -0.0838414 -6.79846 1.72929 5.56639e-15 -6.77772 1.80999 0.0839908 -6.7549 1.89054 0.168131 -6.73001 1.97095 0.252421 -6.70305 2.0512 0.33686 -6.67401 -0.420559 -1.97163 -6.69755 -0.336177 -1.89103 -6.72581 -0.25193 -1.8103 -6.75204 -0.167818 -1.72943 -6.77626 -0.0838414 -1.64843 -6.79846 -3.04956e-15 -1.5673 -6.81864 0.0837061 -1.48602 -6.8368 0.167277 -1.40462 -6.85295 0.250713 -1.32307 -6.86708 0.334013 -1.2414 -6.87919 0.417179 -1.15958 -6.88928 0.500209 -1.07763 -6.89735 0.583104 -0.99555 -6.9034 0.665863 -0.913331 -6.90744 0.748488 -0.830977 -6.90946 0.830977 -0.748488 -6.90946 0.913331 -0.665863 -6.90744 0.99555 -0.583104 -6.9034 1.07763 -0.500209 -6.89735 1.15958 -0.417179 -6.88928 1.2414 -0.334013 -6.87919 1.32307 -0.250713 -6.86708 1.40462 -0.167277 -6.85295 1.48602 -0.0837061 -6.8368 1.5673 -1.68481e-15 -6.81864 1.64843 0.0838414 -6.79846 1.72943 0.167818 -6.77626 1.8103 0.25193 -6.75204 1.89103 0.336177 -6.72581 1.97163 0.420559 -6.69755 -0.504052 -1.89185 -6.71874 -0.41974 -1.81093 -6.74629 -0.33555 -1.72988 -6.77187 -0.251481 -1.64872 -6.79548 -0.167533 -1.56743 -6.81713 -0.0837061 -1.48602 -6.8368 -1.74698e-15 -1.40449 -6.85451 0.0835852 -1.32285 -6.87026 0.167049 -1.24107 -6.88403 0.250393 -1.15918 -6.89584 0.333615 -1.07717 -6.90567 0.416716 -0.995037 -6.91355 0.499696 -0.912783 -6.91945 0.582556 -0.830408 -6.92338 0.665294 -0.747911 -6.92535 0.747911 -0.665294 -6.92535 0.830408 -0.582556 -6.92338 0.912783 -0.499696 -6.91945 0.995037 -0.416716 -6.91355 1.07717 -0.333615 -6.90567 1.15918 -0.250393 -6.89584 1.24107 -0.167049 -6.88403 1.32285 -0.0835852 -6.87026 1.40449 -8.33237e-15 -6.85451 1.48602 0.0837061 -6.8368 1.56743 0.167533 -6.81713 1.64872 0.251481 -6.79548 1.72988 0.33555 -6.77187 1.81093 0.41974 -6.74629 1.89185 0.504052 -6.71874 -0.587338 -1.81187 -6.73758 -0.503112 -1.73063 -6.7645 -0.418993 -1.64929 -6.7895 -0.334981 -1.56784 -6.81257 -0.251076 -1.48628 -6.83372 -0.167277 -1.40462 -6.85295 -0.0835852 -1.32285 -6.87026 -1.16685e-15 -1.24097 -6.88564 0.0834784 -1.15898 -6.8991 0.16685 -1.07689 -6.91064 0.250115 -0.994696 -6.92025 0.333273 -0.912392 -6.92794 0.416325 -0.829981 -6.93371 0.499269 -0.747463 -6.93756 0.582107 -0.664839 -6.93948 0.664839 -0.582107 -6.93948 0.747463 -0.499269 -6.93756 0.829981 -0.416325 -6.93371 0.912392 -0.333273 -6.92794 0.994696 -0.250115 -6.92025 1.07689 -0.16685 -6.91064 1.15898 -0.0834784 -6.8991 1.24097 -1.46857e-14 -6.88564 1.32285 0.0835852 -6.87026 1.40462 0.167277 -6.85295 1.48628 0.251076 -6.83372 1.56784 0.334981 -6.81257 1.64929 0.418993 -6.7895 1.73063 0.503112 -6.7645 1.81187 0.587338 -6.73758 -0.670418 -1.73168 -6.75406 -0.586292 -1.65014 -6.78043 -0.502258 -1.56851 -6.80492 -0.418317 -1.48679 -6.82752 -0.334469 -1.40498 -6.84824 -0.250713 -1.32307 -6.86708 -0.167049 -1.24107 -6.88403 -0.0834784 -1.15898 -6.8991 -1.13946e-15 -1.0768 -6.91228 0.0833859 -0.994525 -6.92359 0.166679 -0.912157 -6.933 0.24988 -0.829696 -6.94054 0.332989 -0.747143 -6.94619 0.416004 -0.664497 -6.94996 0.498928 -0.581759 -6.95184 0.581759 -0.498928 -6.95184 0.664497 -0.416004 -6.94996 0.747143 -0.332989 -6.94619 0.829696 -0.24988 -6.94054 0.912157 -0.166679 -6.933 0.994525 -0.0833859 -6.92359 1.0768 -2.02354e-14 -6.91228 1.15898 0.0834784 -6.8991 1.24107 0.167049 -6.88403 1.32307 0.250713 -6.86708 1.40498 0.334469 -6.84824 1.48679 0.418317 -6.82752 1.56851 0.502258 -6.80492 1.65014 0.586292 -6.78043 1.73168 0.670418 -6.75406 -0.753291 -1.65128 -6.76819 -0.669279 -1.56946 -6.79409 -0.585345 -1.48756 -6.81814 -0.50149 -1.40558 -6.84034 -0.417712 -1.32353 -6.86069 -0.334013 -1.2414 -6.87919 -0.250393 -1.15918 -6.89584 -0.16685 -1.07689 -6.91064 -0.0833859 -0.994525 -6.92359 -1.70322e-15 -0.912079 -6.93469 0.0833076 -0.829554 -6.94394 0.166537 -0.746951 -6.95134 0.249688 -0.664269 -6.95689 0.332761 -0.58151 -6.96059 0.415755 -0.498672 -6.96244 0.498672 -0.415755 -6.96244 0.58151 -0.332761 -6.96059 0.664269 -0.249688 -6.95689 0.746951 -0.166537 -6.95134 0.829554 -0.0833076 -6.94394 0.912079 -2.55823e-14 -6.93469 0.994525 0.0833859 -6.92359 1.07689 0.16685 -6.91064 1.15918 0.250393 -6.89584 1.2414 0.334013 -6.87919 1.32353 0.417712 -6.86069 1.40558 0.50149 -6.84034 1.48756 0.585345 -6.81814 1.56946 0.669279 -6.79409 1.65128 0.753291 -6.76819 -0.835958 -1.57068 -6.77996 -0.752074 -1.48859 -6.80547 -0.668254 -1.40643 -6.82915 -0.584498 -1.32421 -6.85102 -0.500806 -1.24193 -6.87106 -0.417179 -1.15958 -6.88928 -0.333615 -1.07717 -6.90567 -0.250115 -0.994696 -6.92025 -0.166679 -0.912157 -6.933 -0.0833076 -0.829554 -6.94394 -3.02148e-15 -0.746887 -6.95305 0.0832436 -0.664155 -6.96033 0.166423 -0.58136 -6.9658 0.249539 -0.498501 -6.96944 0.33259 -0.415577 -6.97127 0.415577 -0.33259 -6.97127 0.498501 -0.249539 -6.96944 0.58136 -0.166423 -6.9658 0.664155 -0.0832436 -6.96033 0.746887 -3.04043e-14 -6.95305 0.829554 0.0833076 -6.94394 0.912157 0.166679 -6.933 0.994696 0.250115 -6.92025 1.07717 0.333615 -6.90567 1.15958 0.417179 -6.88928 1.24193 0.500806 -6.87106 1.32421 0.584498 -6.85102 1.40643 0.668254 -6.82915 1.48859 0.752074 -6.80547 1.57068 0.835958 -6.77996 -0.918419 -1.48987 -6.78938 -0.834677 -1.40752 -6.81457 -0.750986 -1.32512 -6.83796 -0.667343 -1.24268 -6.85956 -0.583751 -1.16018 -6.87935 -0.500209 -1.07763 -6.89735 -0.416716 -0.995037 -6.91355 -0.333273 -0.912392 -6.92794 -0.24988 -0.829696 -6.94054 -0.166537 -0.746951 -6.95134 -0.0832436 -0.664155 -6.96033 -5.00776e-15 -0.58131 -6.96753 0.0831938 -0.498415 -6.97293 0.166338 -0.415471 -6.97653 0.249432 -0.332476 -6.97833 0.332476 -0.249432 -6.97833 0.415471 -0.166338 -6.97653 0.498415 -0.0831938 -6.97293 0.58131 -3.48237e-14 -6.96753 0.664155 0.0832436 -6.96033 0.746951 0.166537 -6.95134 0.829696 0.24988 -6.94054 0.912392 0.333273 -6.92794 0.995037 0.416716 -6.91355 1.07763 0.500209 -6.89735 1.16018 0.583751 -6.87935 1.24268 0.667343 -6.85956 1.32512 0.750986 -6.83796 1.40752 0.834677 -6.81457 1.48987 0.918419 -6.78938 -1.00067 -1.40885 -6.79644 -0.917088 -1.32626 -6.8214 -0.833539 -1.24364 -6.84457 -0.750025 -1.16098 -6.86597 -0.666546 -1.07828 -6.88558 -0.583104 -0.99555 -6.9034 -0.499696 -0.912783 -6.91945 -0.416325 -0.829981 -6.93371 -0.332989 -0.747143 -6.94619 -0.249688 -0.664269 -6.95689 -0.166423 -0.58136 -6.9658 -0.0831938 -0.498415 -6.97293 -7.645e-15 -0.415435 -6.97828 0.0831582 -0.332419 -6.98184 0.166281 -0.249368 -6.98363 0.249368 -0.166281 -6.98363 0.332419 -0.0831582 -6.98184 0.415435 -3.88678e-14 -6.97828 0.498415 0.0831938 -6.97293 0.58136 0.166423 -6.9658 0.664269 0.249688 -6.95689 0.747143 0.332989 -6.94619 0.829981 0.416325 -6.93371 0.912783 0.499696 -6.91945 0.99555 0.583104 -6.9034 1.07828 0.666546 -6.88558 1.16098 0.750025 -6.86597 1.24364 0.833539 -6.84457 1.32626 0.917088 -6.8214 1.40885 1.00067 -6.79644 -1.08272 -1.32763 -6.80115 -0.999307 -1.24481 -6.82595 -0.915914 -1.16197 -6.84898 -0.832543 -1.07911 -6.87024 -0.749192 -0.996233 -6.88973 -0.665863 -0.913331 -6.90744 -0.582556 -0.830408 -6.92338 -0.499269 -0.747463 -6.93756 -0.416004 -0.664497 -6.94996 -0.332761 -0.58151 -6.96059 -0.249539 -0.498501 -6.96944 -0.166338 -0.415471 -6.97653 -0.0831582 -0.332419 -6.98184 -1.09092e-14 -0.249346 -6.98539 0.0831368 -0.166252 -6.98716 0.166252 -0.0831368 -6.98716 0.249346 -4.22866e-14 -6.98539 0.332419 0.0831582 -6.98184 0.415471 0.166338 -6.97653 0.498501 0.249539 -6.96944 0.58151 0.332761 -6.96059 0.664497 0.416004 -6.94996 0.747463 0.499269 -6.93756 0.830408 0.582556 -6.92338 0.913331 0.665863 -6.90744 0.996233 0.749192 -6.88973 1.07911 0.832543 -6.87024 1.16197 0.915914 -6.84898 1.24481 0.999307 -6.82595 1.32763 1.08272 -6.80115 -1.16456 -1.2462 -6.8035 -1.08133 -1.16317 -6.82823 -0.998112 -1.08013 -6.85118 -0.914897 -0.997087 -6.87237 -0.831689 -0.914036 -6.8918 -0.748488 -0.830977 -6.90946 -0.665294 -0.747911 -6.92535 -0.582107 -0.664839 -6.93948 -0.498928 -0.581759 -6.95184 -0.415755 -0.498672 -6.96244 -0.33259 -0.415577 -6.97127 -0.249432 -0.332476 -6.97833 -0.166281 -0.249368 -6.98363 -0.0831368 -0.166252 -6.98716 -1.48942e-14 -0.0831297 -6.98893 0.0831297 -4.53174e-14 -6.98893 0.166252 0.0831368 -6.98716 0.249368 0.166281 -6.98363 0.332476 0.249432 -6.97833 0.415577 0.33259 -6.97127 0.498672 0.415755 -6.96244 0.581759 0.498928 -6.95184 0.664839 0.582107 -6.93948 0.747911 0.665294 -6.92535 0.830977 0.748488 -6.90946 0.914036 0.831689 -6.8918 0.997087 0.914897 -6.87237 1.08013 0.998112 -6.85118 1.16317 1.08133 -6.82823 1.2462 1.16456 -6.8035 -1.2462 -1.16456 -6.8035 -1.16317 -1.08133 -6.82823 -1.08013 -0.998112 -6.85118 -0.997087 -0.914897 -6.87237 -0.914036 -0.831689 -6.8918 -0.830977 -0.748488 -6.90946 -0.747911 -0.665294 -6.92535 -0.664839 -0.582107 -6.93948 -0.581759 -0.498928 -6.95184 -0.498672 -0.415755 -6.96244 -0.415577 -0.33259 -6.97127 -0.332476 -0.249432 -6.97833 -0.249368 -0.166281 -6.98363 -0.166252 -0.0831368 -6.98716 -0.0831297 -4.64316e-14 -6.98893 -1.41467e-14 0.0831297 -6.98893 0.0831368 0.166252 -6.98716 0.166281 0.249368 -6.98363 0.249432 0.332476 -6.97833 0.33259 0.415577 -6.97127 0.415755 0.498672 -6.96244 0.498928 0.581759 -6.95184 0.582107 0.664839 -6.93948 0.665294 0.747911 -6.92535 0.748488 0.830977 -6.90946 0.831689 0.914036 -6.8918 0.914897 0.997087 -6.87237 0.998112 1.08013 -6.85118 1.08133 1.16317 -6.82823 1.16456 1.2462 -6.8035 -1.32763 -1.08272 -6.80115 -1.24481 -0.999307 -6.82595 -1.16197 -0.915914 -6.84898 -1.07911 -0.832543 -6.87024 -0.996233 -0.749192 -6.88973 -0.913331 -0.665863 -6.90744 -0.830408 -0.582556 -6.92338 -0.747463 -0.499269 -6.93756 -0.664497 -0.416004 -6.94996 -0.58151 -0.332761 -6.96059 -0.498501 -0.249539 -6.96944 -0.415471 -0.166338 -6.97653 -0.332419 -0.0831582 -6.98184 -0.249346 -4.60812e-14 -6.98539 -0.166252 0.0831368 -6.98716 -0.0831368 0.166252 -6.98716 -9.07412e-15 0.249346 -6.98539 0.0831582 0.332419 -6.98184 0.166338 0.415471 -6.97653 0.249539 0.498501 -6.96944 0.332761 0.58151 -6.96059 0.416004 0.664497 -6.94996 0.499269 0.747463 -6.93756 0.582556 0.830408 -6.92338 0.665863 0.913331 -6.90744 0.749192 0.996233 -6.88973 0.832543 1.07911 -6.87024 0.915914 1.16197 -6.84898 0.999307 1.24481 -6.82595 1.08272 1.32763 -6.80115 -1.40885 -1.00067 -6.79644 -1.32626 -0.917088 -6.8214 -1.24364 -0.833539 -6.84457 -1.16098 -0.750025 -6.86597 -1.07828 -0.666546 -6.88558 -0.99555 -0.583104 -6.9034 -0.912783 -0.499696 -6.91945 -0.829981 -0.416325 -6.93371 -0.747143 -0.332989 -6.94619 -0.664269 -0.249688 -6.95689 -0.58136 -0.166423 -6.9658 -0.498415 -0.0831938 -6.97293 -0.415435 -4.588e-14 -6.97828 -0.332419 0.0831582 -6.98184 -0.249368 0.166281 -6.98363 -0.166281 0.249368 -6.98363 -0.0831582 0.332419 -6.98184 -5.21545e-15 0.415435 -6.97828 0.0831938 0.498415 -6.97293 0.166423 0.58136 -6.9658 0.249688 0.664269 -6.95689 0.332989 0.747143 -6.94619 0.416325 0.829981 -6.93371 0.499696 0.912783 -6.91945 0.583104 0.99555 -6.9034 0.666546 1.07828 -6.88558 0.750025 1.16098 -6.86597 0.833539 1.24364 -6.84457 0.917088 1.32626 -6.8214 1.00067 1.40885 -6.79644 -1.48987 -0.918419 -6.78938 -1.40752 -0.834677 -6.81457 -1.32512 -0.750986 -6.83796 -1.24268 -0.667343 -6.85956 -1.16018 -0.583751 -6.87935 -1.07763 -0.500209 -6.89735 -0.995037 -0.416716 -6.91355 -0.912392 -0.333273 -6.92794 -0.829696 -0.24988 -6.94054 -0.746951 -0.166537 -6.95134 -0.664155 -0.0832436 -6.96033 -0.58131 -4.55469e-14 -6.96753 -0.498415 0.0831938 -6.97293 -0.415471 0.166338 -6.97653 -0.332476 0.249432 -6.97833 -0.249432 0.332476 -6.97833 -0.166338 0.415471 -6.97653 -0.0831938 0.498415 -6.97293 -2.53617e-15 0.58131 -6.96753 0.0832436 0.664155 -6.96033 0.166537 0.746951 -6.95134 0.24988 0.829696 -6.94054 0.333273 0.912392 -6.92794 0.416716 0.995037 -6.91355 0.500209 1.07763 -6.89735 0.583751 1.16018 -6.87935 0.667343 1.24268 -6.85956 0.750986 1.32512 -6.83796 0.834677 1.40752 -6.81457 0.918419 1.48987 -6.78938 -1.57068 -0.835958 -6.77996 -1.48859 -0.752074 -6.80547 -1.40643 -0.668254 -6.82915 -1.32421 -0.584498 -6.85102 -1.24193 -0.500806 -6.87106 -1.15958 -0.417179 -6.88928 -1.07717 -0.333615 -6.90567 -0.994696 -0.250115 -6.92025 -0.912157 -0.166679 -6.933 -0.829554 -0.0833076 -6.94394 -0.746887 -4.56579e-14 -6.95305 -0.664155 0.0832436 -6.96033 -0.58136 0.166423 -6.9658 -0.498501 0.249539 -6.96944 -0.415577 0.33259 -6.97127 -0.33259 0.415577 -6.97127 -0.249539 0.498501 -6.96944 -0.166423 0.58136 -6.9658 -0.0832436 0.664155 -6.96033 -1.20737e-15 0.746887 -6.95305 0.0833076 0.829554 -6.94394 0.166679 0.912157 -6.933 0.250115 0.994696 -6.92025 0.333615 1.07717 -6.90567 0.417179 1.15958 -6.88928 0.500806 1.24193 -6.87106 0.584498 1.32421 -6.85102 0.668254 1.40643 -6.82915 0.752074 1.48859 -6.80547 0.835958 1.57068 -6.77996 -1.65128 -0.753291 -6.76819 -1.56946 -0.669279 -6.79409 -1.48756 -0.585345 -6.81814 -1.40558 -0.50149 -6.84034 -1.32353 -0.417712 -6.86069 -1.2414 -0.334013 -6.87919 -1.15918 -0.250393 -6.89584 -1.07689 -0.16685 -6.91064 -0.994525 -0.0833859 -6.92359 -0.912079 -4.57134e-14 -6.93469 -0.829554 0.0833076 -6.94394 -0.746951 0.166537 -6.95134 -0.664269 0.249688 -6.95689 -0.58151 0.332761 -6.96059 -0.498672 0.415755 -6.96244 -0.415755 0.498672 -6.96244 -0.332761 0.58151 -6.96059 -0.249688 0.664269 -6.95689 -0.166537 0.746951 -6.95134 -0.0833076 0.829554 -6.94394 -8.46545e-16 0.912079 -6.93469 0.0833859 0.994525 -6.92359 0.16685 1.07689 -6.91064 0.250393 1.15918 -6.89584 0.334013 1.2414 -6.87919 0.417712 1.32353 -6.86069 0.50149 1.40558 -6.84034 0.585345 1.48756 -6.81814 0.669279 1.56946 -6.79409 0.753291 1.65128 -6.76819 -1.73168 -0.670418 -6.75406 -1.65014 -0.586292 -6.78043 -1.56851 -0.502258 -6.80492 -1.48679 -0.418317 -6.82752 -1.40498 -0.334469 -6.84824 -1.32307 -0.250713 -6.86708 -1.24107 -0.167049 -6.88403 -1.15898 -0.0834784 -6.8991 -1.0768 -4.60187e-14 -6.91228 -0.994525 0.0833859 -6.92359 -0.912157 0.166679 -6.933 -0.829696 0.24988 -6.94054 -0.747143 0.332989 -6.94619 -0.664497 0.416004 -6.94996 -0.581759 0.498928 -6.95184 -0.498928 0.581759 -6.95184 -0.416004 0.664497 -6.94996 -0.332989 0.747143 -6.94619 -0.24988 0.829696 -6.94054 -0.166679 0.912157 -6.933 -0.0833859 0.994525 -6.92359 -1.51268e-15 1.0768 -6.91228 0.0834784 1.15898 -6.8991 0.167049 1.24107 -6.88403 0.250713 1.32307 -6.86708 0.334469 1.40498 -6.84824 0.418317 1.48679 -6.82752 0.502258 1.56851 -6.80492 0.586292 1.65014 -6.78043 0.670418 1.73168 -6.75406 -1.81187 -0.587338 -6.73758 -1.73063 -0.503112 -6.7645 -1.64929 -0.418993 -6.7895 -1.56784 -0.334981 -6.81257 -1.48628 -0.251076 -6.83372 -1.40462 -0.167277 -6.85295 -1.32285 -0.0835852 -6.87026 -1.24097 -4.65461e-14 -6.88564 -1.15898 0.0834784 -6.8991 -1.07689 0.16685 -6.91064 -0.994696 0.250115 -6.92025 -0.912392 0.333273 -6.92794 -0.829981 0.416325 -6.93371 -0.747463 0.499269 -6.93756 -0.664839 0.582107 -6.93948 -0.582107 0.664839 -6.93948 -0.499269 0.747463 -6.93756 -0.416325 0.829981 -6.93371 -0.333273 0.912392 -6.92794 -0.250115 0.994696 -6.92025 -0.16685 1.07689 -6.91064 -0.0834784 1.15898 -6.8991 -3.747e-15 1.24097 -6.88564 0.0835852 1.32285 -6.87026 0.167277 1.40462 -6.85295 0.251076 1.48628 -6.83372 0.334981 1.56784 -6.81257 0.418993 1.64929 -6.7895 0.503112 1.73063 -6.7645 0.587338 1.81187 -6.73758 -1.89185 -0.504052 -6.71874 -1.81093 -0.41974 -6.74629 -1.72988 -0.33555 -6.77187 -1.64872 -0.251481 -6.79548 -1.56743 -0.167533 -6.81713 -1.48602 -0.0837061 -6.8368 -1.40449 -4.73649e-14 -6.85451 -1.32285 0.0835852 -6.87026 -1.24107 0.167049 -6.88403 -1.15918 0.250393 -6.89584 -1.07717 0.333615 -6.90567 -0.995037 0.416716 -6.91355 -0.912783 0.499696 -6.91945 -0.830408 0.582556 -6.92338 -0.747911 0.665294 -6.92535 -0.665294 0.747911 -6.92535 -0.582556 0.830408 -6.92338 -0.499696 0.912783 -6.91945 -0.416716 0.995037 -6.91355 -0.333615 1.07717 -6.90567 -0.250393 1.15918 -6.89584 -0.167049 1.24107 -6.88403 -0.0835852 1.32285 -6.87026 -6.7446e-15 1.40449 -6.85451 0.0837061 1.48602 -6.8368 0.167533 1.56743 -6.81713 0.251481 1.64872 -6.79548 0.33555 1.72988 -6.77187 0.41974 1.81093 -6.74629 0.504052 1.89185 -6.71874 -1.97163 -0.420559 -6.69755 -1.89103 -0.336177 -6.72581 -1.8103 -0.25193 -6.75204 -1.72943 -0.167818 -6.77626 -1.64843 -0.0838414 -6.79846 -1.5673 -4.84543e-14 -6.81864 -1.48602 0.0837061 -6.8368 -1.40462 0.167277 -6.85295 -1.32307 0.250713 -6.86708 -1.2414 0.334013 -6.87919 -1.15958 0.417179 -6.88928 -1.07763 0.500209 -6.89735 -0.99555 0.583104 -6.9034 -0.913331 0.665863 -6.90744 -0.830977 0.748488 -6.90946 -0.748488 0.830977 -6.90946 -0.665863 0.913331 -6.90744 -0.583104 0.99555 -6.9034 -0.500209 1.07763 -6.89735 -0.417179 1.15958 -6.88928 -0.334013 1.2414 -6.87919 -0.250713 1.32307 -6.86708 -0.167277 1.40462 -6.85295 -0.0837061 1.48602 -6.8368 -1.12688e-14 1.5673 -6.81864 0.0838414 1.64843 -6.79846 0.167818 1.72943 -6.77626 0.25193 1.8103 -6.75204 0.336177 1.89103 -6.72581 0.420559 1.97163 -6.69755 -2.0512 -0.33686 -6.67401 -1.97095 -0.252421 -6.70305 -1.89054 -0.168131 -6.73001 -1.80999 -0.0839908 -6.7549 -1.72929 -4.93286e-14 -6.77772 -1.64843 0.0838414 -6.79846 -1.56743 0.167533 -6.81713 -1.48628 0.251076 -6.83372 -1.40498 0.334469 -6.84824 -1.32353 0.417712 -6.86069 -1.24193 0.500806 -6.87106 -1.16018 0.583751 -6.87935 -1.07828 0.666546 -6.88558 -0.996233 0.749192 -6.88973 -0.914036 0.831689 -6.8918 -0.831689 0.914036 -6.8918 -0.749192 0.996233 -6.88973 -0.666546 1.07828 -6.88558 -0.583751 1.16018 -6.87935 -0.500806 1.24193 -6.87106 -0.417712 1.32353 -6.86069 -0.334469 1.40498 -6.84824 -0.251076 1.48628 -6.83372 -0.167533 1.56743 -6.81713 -0.0838414 1.64843 -6.79846 -1.68199e-14 1.72929 -6.77772 0.0839908 1.80999 -6.7549 0.168131 1.89054 -6.73001 0.252421 1.97095 -6.70305 0.33686 2.0512 -6.67401 -2.13057 -0.252954 -6.64811 -2.05067 -0.168473 -6.67801 -1.9706 -0.0841545 -6.70578 -1.89038 -5.09939e-14 -6.73141 -1.80999 0.0839908 -6.7549 -1.72943 0.167818 -6.77626 -1.64872 0.251481 -6.79548 -1.56784 0.334981 -6.81257 -1.48679 0.418317 -6.82752 -1.40558 0.50149 -6.84034 -1.32421 0.584498 -6.85102 -1.24268 0.667343 -6.85956 -1.16098 0.750025 -6.86597 -1.07911 0.832543 -6.87024 -0.997087 0.914897 -6.87237 -0.914897 0.997087 -6.87237 -0.832543 1.07911 -6.87024 -0.750025 1.16098 -6.86597 -0.667343 1.24268 -6.85956 -0.584498 1.32421 -6.85102 -0.50149 1.40558 -6.84034 -0.418317 1.48679 -6.82752 -0.334981 1.56784 -6.81257 -0.251481 1.64872 -6.79548 -0.167818 1.72943 -6.77626 -0.0839908 1.80999 -6.7549 -2.33147e-14 1.89038 -6.73141 0.0841545 1.9706 -6.70578 0.168473 2.05067 -6.67801 0.252954 2.13057 -6.64811 -2.20972 -0.168843 -6.61985 -2.1302 -0.0843324 -6.6507 -2.05049 -5.24008e-14 -6.67934 -1.9706 0.0841545 -6.70578 -1.89054 0.168131 -6.73001 -1.8103 0.25193 -6.75204 -1.72988 0.33555 -6.77187 -1.64929 0.418993 -6.7895 -1.56851 0.502258 -6.80492 -1.48756 0.585345 -6.81814 -1.40643 0.668254 -6.82915 -1.32512 0.750986 -6.83796 -1.24364 0.833539 -6.84457 -1.16197 0.915914 -6.84898 -1.08013 0.998112 -6.85118 -0.998112 1.08013 -6.85118 -0.915914 1.16197 -6.84898 -0.833539 1.24364 -6.84457 -0.750986 1.32512 -6.83796 -0.668254 1.40643 -6.82915 -0.585345 1.48756 -6.81814 -0.502258 1.56851 -6.80492 -0.418993 1.64929 -6.7895 -0.33555 1.72988 -6.77187 -0.25193 1.8103 -6.75204 -0.168131 1.89054 -6.73001 -0.0841545 1.9706 -6.70578 -3.08642e-14 2.05049 -6.67934 0.0843324 2.1302 -6.6507 0.168843 2.20972 -6.61985 -2.28868 -0.0845245 -6.58924 -2.20953 -5.38671e-14 -6.62111 -2.1302 0.0843324 -6.6507 -2.05067 0.168473 -6.67801 -1.97095 0.252421 -6.70305 -1.89103 0.336177 -6.72581 -1.81093 0.41974 -6.74629 -1.73063 0.503112 -6.7645 -1.65014 0.586292 -6.78043 -1.56946 0.669279 -6.79409 -1.48859 0.752074 -6.80547 -1.40752 0.834677 -6.81457 -1.32626 0.917088 -6.8214 -1.24481 0.999307 -6.82595 -1.16317 1.08133 -6.82823 -1.08133 1.16317 -6.82823 -0.999307 1.24481 -6.82595 -0.917088 1.32626 -6.8214 -0.834677 1.40752 -6.81457 -0.752074 1.48859 -6.80547 -0.669279 1.56946 -6.79409 -0.586292 1.65014 -6.78043 -0.503112 1.73063 -6.7645 -0.41974 1.81093 -6.74629 -0.336177 1.89103 -6.72581 -0.252421 1.97095 -6.70305 -0.168473 2.05067 -6.67801 -0.0843324 2.1302 -6.6507 -3.9968e-14 2.20953 -6.62111 0.0845245 2.28868 -6.58924 -2.36742 -5.59552e-14 -6.55628 -2.28868 0.0845245 -6.58924 -2.20972 0.168843 -6.61985 -2.13057 0.252954 -6.64811 -2.0512 0.33686 -6.67401 -1.97163 0.420559 -6.69755 -1.89185 0.504052 -6.71874 -1.81187 0.587338 -6.73758 -1.73168 0.670418 -6.75406 -1.65128 0.753291 -6.76819 -1.57068 0.835958 -6.77996 -1.48987 0.918419 -6.78938 -1.40885 1.00067 -6.79644 -1.32763 1.08272 -6.80115 -1.2462 1.16456 -6.8035 -1.16456 1.2462 -6.8035 -1.08272 1.32763 -6.80115 -1.00067 1.40885 -6.79644 -0.918419 1.48987 -6.78938 -0.835958 1.57068 -6.77996 -0.753291 1.65128 -6.76819 -0.670418 1.73168 -6.75406 -0.587338 1.81187 -6.73758 -0.504052 1.89185 -6.71874 -0.420559 1.97163 -6.69755 -0.33686 2.0512 -6.67401 -0.252954 2.13057 -6.64811 -0.168843 2.20972 -6.61985 -0.0845245 2.28868 -6.58924 -4.9738e-14 2.36742 -6.55628 2.87548e-14 -2.2847 -9.18953 0.0751249 -2.20226 -9.21293 0.150511 -2.12008 -9.23465 0.226159 -2.03816 -9.25471 0.302067 -1.9565 -9.27309 0.378237 -1.87511 -9.2898 0.454669 -1.79397 -9.30484 0.531361 -1.7131 -9.31821 0.608315 -1.63249 -9.32991 0.68553 -1.55214 -9.33993 0.763006 -1.47205 -9.34829 0.840744 -1.39222 -9.35497 0.918743 -1.31266 -9.35999 0.997003 -1.23335 -9.36333 1.07552 -1.15431 -9.365 1.15431 -1.07552 -9.365 1.23335 -0.997003 -9.36333 1.31266 -0.918743 -9.35999 1.39222 -0.840744 -9.35497 1.47205 -0.763006 -9.34829 1.55214 -0.68553 -9.33993 1.63249 -0.608315 -9.32991 1.7131 -0.531361 -9.31821 1.79397 -0.454669 -9.30484 1.87511 -0.378237 -9.2898 1.9565 -0.302067 -9.27309 2.03816 -0.226159 -9.25471 2.12008 -0.150511 -9.23465 2.20226 -0.0751249 -9.21293 2.2847 -3.9968e-15 -9.18953 -0.0751249 -2.20226 -9.21293 2.68322e-14 -2.12032 -9.23618 0.0753682 -2.03863 -9.25778 0.15098 -1.95718 -9.27771 0.226834 -1.87597 -9.29598 0.302932 -1.79501 -9.31259 0.379273 -1.71429 -9.32754 0.455858 -1.63381 -9.34083 0.532685 -1.55358 -9.35246 0.609756 -1.47359 -9.36242 0.687071 -1.39384 -9.37073 0.764628 -1.31434 -9.37737 0.842429 -1.23508 -9.38235 0.920473 -1.15606 -9.38568 0.99876 -1.07729 -9.38734 1.07729 -0.99876 -9.38734 1.15606 -0.920473 -9.38568 1.23508 -0.842429 -9.38235 1.31434 -0.764628 -9.37737 1.39384 -0.687071 -9.37073 1.47359 -0.609756 -9.36242 1.55358 -0.532685 -9.35246 1.63381 -0.455858 -9.34083 1.71429 -0.379273 -9.32754 1.79501 -0.302932 -9.31259 1.87597 -0.226834 -9.29598 1.95718 -0.15098 -9.27771 2.03863 -0.0753682 -9.25778 2.12032 -1.12085e-14 -9.23618 2.20226 0.0751249 -9.21293 -0.150511 -2.12008 -9.23465 -0.0753682 -2.03863 -9.25778 2.47802e-14 -1.9574 -9.27925 0.0755934 -1.87641 -9.29907 0.151412 -1.79563 -9.31724 0.227456 -1.71508 -9.33375 0.303725 -1.63476 -9.34862 0.380219 -1.55466 -9.36183 0.456939 -1.47479 -9.37339 0.533884 -1.39514 -9.3833 0.611054 -1.31572 -9.39156 0.688449 -1.23652 -9.39817 0.766069 -1.15755 -9.40312 0.843915 -1.0788 -9.40643 0.921986 -1.00028 -9.40808 1.00028 -0.921986 -9.40808 1.0788 -0.843915 -9.40643 1.15755 -0.766069 -9.40312 1.23652 -0.688449 -9.39817 1.31572 -0.611054 -9.39156 1.39514 -0.533884 -9.3833 1.47479 -0.456939 -9.37339 1.55466 -0.380219 -9.36183 1.63476 -0.303725 -9.34862 1.71508 -0.227456 -9.33375 1.79563 -0.151412 -9.31724 1.87641 -0.0755934 -9.29907 1.9574 -1.74322e-14 -9.27925 2.03863 0.0753682 -9.25778 2.12008 0.150511 -9.23465 -0.226159 -2.03816 -9.25471 -0.15098 -1.95718 -9.27771 -0.0755934 -1.87641 -9.29907 2.28491e-14 -1.79584 -9.31879 0.0758006 -1.71548 -9.33686 0.151808 -1.63533 -9.35329 0.228023 -1.55538 -9.36808 0.304446 -1.47565 -9.38122 0.381075 -1.39611 -9.39272 0.457912 -1.31679 -9.40258 0.534956 -1.23768 -9.4108 0.612207 -1.15877 -9.41737 0.689665 -1.08007 -9.4223 0.767331 -1.00157 -9.42558 0.845203 -0.923283 -9.42723 0.923283 -0.845203 -9.42723 1.00157 -0.767331 -9.42558 1.08007 -0.689665 -9.4223 1.15877 -0.612207 -9.41737 1.23768 -0.534956 -9.4108 1.31679 -0.457912 -9.40258 1.39611 -0.381075 -9.39272 1.47565 -0.304446 -9.38122 1.55538 -0.228023 -9.36808 1.63533 -0.151808 -9.35329 1.71548 -0.0758006 -9.33686 1.79584 -2.35738e-14 -9.31879 1.87641 0.0755934 -9.29907 1.95718 0.15098 -9.27771 2.03816 0.226159 -9.25471 -0.302067 -1.9565 -9.27309 -0.226834 -1.87597 -9.29598 -0.151412 -1.79563 -9.31724 -0.0758006 -1.71548 -9.33686 2.11141e-14 -1.63552 -9.35485 0.0759898 -1.55574 -9.3712 0.152169 -1.47616 -9.38591 0.228537 -1.39676 -9.39899 0.305094 -1.31756 -9.41044 0.381841 -1.23854 -9.42025 0.458777 -1.15971 -9.42843 0.535902 -1.08107 -9.43497 0.613216 -1.00262 -9.43987 0.690719 -0.924365 -9.44314 0.768412 -0.846294 -9.44478 0.846294 -0.768412 -9.44478 0.924365 -0.690719 -9.44314 1.00262 -0.613216 -9.43987 1.08107 -0.535902 -9.43497 1.15971 -0.458777 -9.42843 1.23854 -0.381841 -9.42025 1.31756 -0.305094 -9.41044 1.39676 -0.228537 -9.39899 1.47616 -0.152169 -9.38591 1.55574 -0.0759898 -9.3712 1.63552 -2.96509e-14 -9.35485 1.71548 0.0758006 -9.33686 1.79563 0.151412 -9.31724 1.87597 0.226834 -9.29598 1.9565 0.302067 -9.27309 -0.378237 -1.87511 -9.2898 -0.302932 -1.79501 -9.31259 -0.227456 -1.71508 -9.33375 -0.151808 -1.63533 -9.35329 -0.0759898 -1.55574 -9.3712 1.91585e-14 -1.47633 -9.38748 0.076161 -1.39709 -9.40213 0.152493 -1.31802 -9.41515 0.228996 -1.23912 -9.42655 0.305671 -1.16039 -9.43631 0.382517 -1.08183 -9.44445 0.459534 -1.00344 -9.45097 0.536722 -0.925229 -9.45585 0.614081 -0.847186 -9.45911 0.691611 -0.769313 -9.46073 0.769313 -0.691611 -9.46073 0.847186 -0.614081 -9.45911 0.925229 -0.536722 -9.45585 1.00344 -0.459534 -9.45097 1.08183 -0.382517 -9.44445 1.16039 -0.305671 -9.43631 1.23912 -0.228996 -9.42655 1.31802 -0.152493 -9.41515 1.39709 -0.076161 -9.40213 1.47633 -3.49595e-14 -9.38748 1.55574 0.0759898 -9.3712 1.63533 0.151808 -9.35329 1.71508 0.227456 -9.33375 1.79501 0.302932 -9.31259 1.87511 0.378237 -9.2898 -0.454669 -1.79397 -9.30484 -0.379273 -1.71429 -9.32754 -0.303725 -1.63476 -9.34862 -0.228023 -1.55538 -9.36808 -0.152169 -1.47616 -9.38591 -0.076161 -1.39709 -9.40213 1.7472e-14 -1.31817 -9.41672 0.0763141 -1.23941 -9.42969 0.1527