<?xml version="1.0"?> 
<VTKFile type="StructuredGrid" version="0.1"> 
<StructuredGrid WholeExtent="0 14 0 14 0 29"> 
<Piece Extent="0 14 0 14 0 29"> 
<PointData>
<DataArray type="Float32" Name="efield" format="ascii" NumberOfComponents="3"> 
-3.09797e-12 20.6546 -6.29905 -1.43899 19.143 -6.68386 -2.88358 17.6369 -7.00946 -4.33375 16.1364 -7.27586 -5.78951 14.6415 -7.48307 -7.25087 13.1522 -7.63107 -8.71782 11.6685 -7.71987 -10.1904 10.1904 -7.74947 -11.6685 8.71782 -7.71987 -13.1522 7.25087 -7.63107 -14.6415 5.78951 -7.48307 -16.1364 4.33375 -7.27586 -17.6369 2.88358 -7.00946 -19.143 1.43899 -6.68386 -20.6546 2.32703e-13 -6.29905 1.43899 19.143 -6.68386 -2.27971e-12 17.6417 -6.87179 -1.44378 16.1452 -7.03082 -2.89236 14.6535 -7.16093 -4.34573 13.1666 -7.26212 -5.80389 11.6845 -7.33441 -7.26684 10.2071 -7.37778 -8.73459 8.73459 -7.39223 -10.2071 7.26684 -7.37778 -11.6845 5.80389 -7.33441 -13.1666 4.34573 -7.26212 -14.6535 2.89236 -7.16093 -16.1452 1.44378 -7.03082 -17.6417 -2.43406e-12 -6.87179 -19.143 -1.43899 -6.68386 2.88358 17.6369 -7.00946 1.44378 16.1452 -7.03082 -1.46937e-12 14.6575 -7.04889 -1.44778 13.1738 -7.06367 -2.89955 11.694 -7.07517 -4.35531 10.2183 -7.08339 -5.81507 8.74657 -7.08831 -7.27882 7.27882 -7.08996 -8.74657 5.81507 -7.08831 -10.2183 4.35531 -7.08339 -11.694 2.89955 -7.07517 -13.1738 1.44778 -7.06367 -14.6575 -5.1398e-12 -7.04889 -16.1452 -1.44378 -7.03082 -17.6369 -2.88358 -7.00946 4.33375 16.1364 -7.27586 2.89236 14.6535 -7.16093 1.44778 13.1738 -7.06367 -6.92753e-13 11.6972 -6.9841 -1.45097 10.2239 -6.92221 -2.90514 8.75376 -6.878 -4.3625 7.28681 -6.85148 -5.82306 5.82306 -6.84264 -7.28681 4.3625 -6.85148 -8.75376 2.90514 -6.878 -10.2239 1.45097 -6.92221 -11.6972 -7.88377e-12 -6.9841 -13.1738 -1.44778 -7.06367 -14.6535 -2.89236 -7.16093 -16.1364 -4.33375 -7.27586 5.78951 14.6415 -7.48307 4.34573 13.1666 -7.26212 2.89955 11.694 -7.07517 1.45097 10.2239 -6.92221 1.72519e-14 8.75615 -6.80324 -1.45337 7.2908 -6.71826 -2.90913 5.82785 -6.66728 -4.36729 4.36729 -6.65028 -5.82785 2.90913 -6.66728 -7.2908 1.45337 -6.71826 -8.75615 -1.06467e-11 -6.80324 -10.2239 -1.45097 -6.92221 -11.694 -2.89955 -7.07517 -13.1666 -4.34573 -7.26212 -14.6415 -5.78951 -7.48307 7.25087 13.1522 -7.63107 5.80389 11.6845 -7.33441 4.35531 10.2183 -7.08339 2.90514 8.75376 -6.878 1.45337 7.2908 -6.71826 6.2863e-13 5.82945 -6.60416 -1.45497 4.36969 -6.5357 -2.91153 2.91153 -6.51288 -4.36969 1.45497 -6.5357 -5.82945 -1.34153e-11 -6.60416 -7.2908 -1.45337 -6.71826 -8.75376 -2.90514 -6.878 -10.2183 -4.35531 -7.08339 -11.6845 -5.80389 -7.33441 -13.1522 -7.25087 -7.63107 8.71782 11.6685 -7.71987 7.26684 10.2071 -7.37778 5.81507 8.74657 -7.08831 4.3625 7.28681 -6.85148 2.90913 5.82785 -6.66728 1.45497 4.36969 -6.5357 1.11259e-12 2.91233 -6.45676 -1.45576 1.45576 -6.43044 -2.91233 -1.61726e-11 -6.45676 -4.36969 -1.45497 -6.5357 -5.82785 -2.90913 -6.66728 -7.28681 -4.3625 -6.85148 -8.74657 -5.81507 -7.08831 -10.2071 -7.26684 -7.37778 -11.6685 -8.71782 -7.71987 10.1904 10.1904 -7.74947 8.73459 8.73459 -7.39223 7.27882 7.27882 -7.08996 5.82306 5.82306 -6.84264 4.36729 4.36729 -6.65028 2.91153 2.91153 -6.51288 1.45576 1.45576 -6.43044 1.43693e-12 -1.89113e-11 -6.40296 -1.45576 -1.45576 -6.43044 -2.91153 -2.91153 -6.51288 -4.36729 -4.36729 -6.65028 -5.82306 -5.82306 -6.84264 -7.27882 -7.27882 -7.08996 -8.73459 -8.73459 -7.39223 -10.1904 -10.1904 -7.74947 11.6685 8.71782 -7.71987 10.2071 7.26684 -7.37778 8.74657 5.81507 -7.08831 7.28681 4.3625 -6.85148 5.82785 2.90913 -6.66728 4.36969 1.45497 -6.5357 2.91233 -1.71285e-11 -6.45676 1.45576 -1.45576 -6.43044 1.43778e-12 -2.91233 -6.45676 -1.45497 -4.36969 -6.5357 -2.90913 -5.82785 -6.66728 -4.3625 -7.28681 -6.85148 -5.81507 -8.74657 -7.08831 -7.26684 -10.2071 -7.37778 -8.71782 -11.6685 -7.71987 13.1522 7.25087 -7.63107 11.6845 5.80389 -7.33441 10.2183 4.35531 -7.08339 8.75376 2.90514 -6.878 7.2908 1.45337 -6.71826 5.82945 -1.5229e-11 -6.60416 4.36969 -1.45497 -6.5357 2.91153 -2.91153 -6.51288 1.45497 -4.36969 -6.5357 1.31847e-12 -5.82945 -6.60416 -1.45337 -7.2908 -6.71826 -2.90514 -8.75376 -6.878 -4.35531 -10.2183 -7.08339 -5.80389 -11.6845 -7.33441 -7.25087 -13.1522 -7.63107 14.6415 5.78951 -7.48307 13.1666 4.34573 -7.26212 11.694 2.89955 -7.07517 10.2239 1.45097 -6.92221 8.75615 -1.32201e-11 -6.80324 7.2908 -1.45337 -6.71826 5.82785 -2.90913 -6.66728 4.36729 -4.36729 -6.65028 2.90913 -5.82785 -6.66728 1.45337 -7.2908 -6.71826 1.05027e-12 -8.75615 -6.80324 -1.45097 -10.2239 -6.92221 -2.89955 -11.694 -7.07517 -4.34573 -13.1666 -7.26212 -5.78951 -14.6415 -7.48307 16.1364 4.33375 -7.27586 14.6535 2.89236 -7.16093 13.1738 1.44778 -7.06367 11.6972 -1.11142e-11 -6.9841 10.2239 -1.45097 -6.92221 8.75376 -2.90514 -6.878 7.28681 -4.3625 -6.85148 5.82306 -5.82306 -6.84264 4.3625 -7.28681 -6.85148 2.90514 -8.75376 -6.878 1.45097 -10.2239 -6.92221 6.0707e-13 -11.6972 -6.9841 -1.44778 -13.1738 -7.06367 -2.89236 -14.6535 -7.16093 -4.33375 -16.1364 -7.27586 17.6369 2.88358 -7.00946 16.1452 1.44378 -7.03082 14.6575 -8.92819e-12 -7.04889 13.1738 -1.44778 -7.06367 11.694 -2.89955 -7.07517 10.2183 -4.35531 -7.08339 8.74657 -5.81507 -7.08831 7.27882 -7.27882 -7.08996 5.81507 -8.74657 -7.08831 4.35531 -10.2183 -7.08339 2.89955 -11.694 -7.07517 1.44778 -13.1738 -7.06367 -3.77476e-14 -14.6575 -7.04889 -1.44378 -16.1452 -7.03082 -2.88358 -17.6369 -7.00946 19.143 1.43899 -6.68386 17.6417 -6.67129e-12 -6.87179 16.1452 -1.44378 -7.03082 14.6535 -2.89236 -7.16093 13.1666 -4.34573 -7.26212 11.6845 -5.80389 -7.33441 10.2071 -7.26684 -7.37778 8.73459 -8.73459 -7.39223 7.26684 -10.2071 -7.37778 5.80389 -11.6845 -7.33441 4.34573 -13.1666 -7.26212 2.89236 -14.6535 -7.16093 1.44378 -16.1452 -7.03082 -9.11271e-13 -17.6417 -6.87179 -1.43899 -19.143 -6.68386 20.6546 -4.3574e-12 -6.29905 19.143 -1.43899 -6.68386 17.6369 -2.88358 -7.00946 16.1364 -4.33375 -7.27586 14.6415 -5.78951 -7.48307 13.1522 -7.25087 -7.63107 11.6685 -8.71782 -7.71987 10.1904 -10.1904 -7.74947 8.71782 -11.6685 -7.71987 7.25087 -13.1522 -7.63107 5.78951 -14.6415 -7.48307 4.33375 -16.1364 -7.27586 2.88358 -17.6369 -7.00946 1.43899 -19.143 -6.68386 -2.04103e-12 -20.6546 -6.29905 -3.58114e-12 19.4 8.32664 -1.59393 18.2225 8.27573 -3.15583 17.013 8.23265 -4.6857 15.7714 8.19741 -6.18353 14.4978 8.16999 -7.64933 13.1922 8.15041 -9.08309 11.8545 8.13866 -10.4848 10.4848 8.13475 -11.8545 9.08309 8.13866 -13.1922 7.64933 8.15041 -14.4978 6.18353 8.16999 -15.7714 4.6857 8.19741 -17.013 3.15583 8.23265 -18.2225 1.59393 8.27573 -19.4 2.66542e-12 8.32664 1.59393 18.2225 8.27573 -3.05152e-12 16.9855 8.20833 -1.56648 15.7211 8.15131 -3.10549 14.4292 8.10465 -4.61705 13.1098 8.06836 -6.10116 11.763 8.04244 -7.5578 10.3887 8.02688 -8.98699 8.98699 8.0217 -10.3887 7.5578 8.02688 -11.763 6.10116 8.04244 -13.1098 4.61705 8.06836 -14.4292 3.10549 8.10465 -15.7211 1.56648 8.15131 -16.9855 -1.84813e-13 8.20833 -18.2225 -1.59393 8.27573 3.15583 17.013 8.23265 1.56648 15.7211 8.15131 -2.36821e-12 14.4063 8.08248 -1.54359 13.0686 8.02616 -3.06431 11.7081 7.98236 -4.56214 10.3247 7.95107 -6.03709 8.91834 7.9323 -7.48916 7.48916 7.92604 -8.91834 6.03709 7.9323 -10.3247 4.56214 7.95107 -11.7081 3.06431 7.98236 -13.0686 1.54359 8.02616 -14.4063 -3.1785e-12 8.08248 -15.7211 -1.56648 8.15131 -17.013 -3.15583 8.23265 4.6857 15.7714 8.19741 3.10549 14.4292 8.10465 1.54359 13.0686 8.02616 -1.53443e-12 11.6898 7.96194 -1.52529 10.2926 7.912 -3.03227 8.87716 7.87632 -4.52095 7.44339 7.85492 -5.99133 5.99133 7.84778 -7.44339 4.52095 7.85492 -8.87716 3.03227 7.87632 -10.2926 1.52529 7.912 -11.6898 -6.29626e-12 7.96194 -13.0686 -1.54359 8.02616 -14.4292 -3.10549 8.10465 -15.7714 -4.6857 8.19741 6.18353 14.4978 8.16999 4.61705 13.1098 8.06836 3.06431 11.7081 7.98236 1.52529 10.2926 7.912 -5.58455e-13 8.86343 7.85727 -1.51156 7.42051 7.81818 -3.00939 5.96387 7.79473 -4.49349 4.49349 7.78691 -5.96387 3.00939 7.79473 -7.42051 1.51156 7.81818 -8.86343 -9.51672e-12 7.85727 -10.2926 -1.52529 7.912 -11.7081 -3.06431 7.98236 -13.1098 -4.61705 8.06836 -14.4978 -6.18353 8.16999 7.64933 13.1922 8.15041 6.10116 11.763 8.04244 4.56214 10.3247 7.95107 3.03227 8.87716 7.87632 1.51156 7.42051 7.81818 5.54169e-13 5.95472 7.77665 -1.50241 4.47977 7.75174 -2.99566 2.99566 7.74343 -4.47977 1.50241 7.75174 -5.95472 -1.28156e-11 7.77665 -7.42051 -1.51156 7.81818 -8.87716 -3.03227 7.87632 -10.3247 -4.56214 7.95107 -11.763 -6.10116 8.04244 -13.1922 -7.64933 8.15041 9.08309 11.8545 8.13866 7.5578 10.3887 8.02688 6.03709 8.91834 7.9323 4.52095 7.44339 7.85492 3.00939 5.96387 7.79473 1.50241 4.47977 7.75174 1.80004e-12 2.99109 7.72594 -1.49783 1.49783 7.71734 -2.99109 -1.61712e-11 7.72594 -4.47977 -1.50241 7.75174 -5.96387 -3.00939 7.79473 -7.44339 -4.52095 7.85492 -8.91834 -6.03709 7.9323 -10.3887 -7.5578 8.02688 -11.8545 -9.08309 8.13866 10.4848 10.4848 8.13475 8.98699 8.98699 8.0217 7.48916 7.48916 7.92604 5.99133 5.99133 7.84778 4.49349 4.49349 7.78691 2.99566 2.99566 7.74343 1.49783 1.49783 7.71734 3.17131e-12 -1.95686e-11 7.70865 -1.49783 -1.49783 7.71734 -2.99566 -2.99566 7.74343 -4.49349 -4.49349 7.78691 -5.99133 -5.99133 7.84778 -7.48916 -7.48916 7.92604 -8.98699 -8.98699 8.0217 -10.4848 -10.4848 8.13475 11.8545 9.08309 8.13866 10.3887 7.5578 8.02688 8.91834 6.03709 7.9323 7.44339 4.52095 7.85492 5.96387 3.00939 7.79473 4.47977 1.50241 7.75174 2.99109 -1.63948e-11 7.72594 1.49783 -1.49783 7.71734 1.37428e-12 -2.99109 7.72594 -1.50241 -4.47977 7.75174 -3.00939 -5.96387 7.79473 -4.52095 -7.44339 7.85492 -6.03709 -8.91834 7.9323 -7.5578 -10.3887 8.02688 -9.08309 -11.8545 8.13866 13.1922 7.64933 8.15041 11.763 6.10116 8.04244 10.3247 4.56214 7.95107 8.87716 3.03227 7.87632 7.42051 1.51156 7.81818 5.95472 -1.33658e-11 7.77665 4.47977 -1.50241 7.75174 2.99566 -2.99566 7.74343 1.50241 -4.47977 7.75174 -4.44825e-13 -5.95472 7.77665 -1.51156 -7.42051 7.81818 -3.03227 -8.87716 7.87632 -4.56214 -10.3247 7.95107 -6.10116 -11.763 8.04244 -7.64933 -13.1922 8.15041 14.4978 6.18353 8.16999 13.1098 4.61705 8.06836 11.7081 3.06431 7.98236 10.2926 1.52529 7.912 8.86343 -1.04807e-11 7.85727 7.42051 -1.51156 7.81818 5.96387 -3.00939 7.79473 4.49349 -4.49349 7.78691 3.00939 -5.96387 7.79473 1.51156 -7.42051 7.81818 -2.31798e-12 -8.86343 7.85727 -1.52529 -10.2926 7.912 -3.06431 -11.7081 7.98236 -4.61705 -13.1098 8.06836 -6.18353 -14.4978 8.16999 15.7714 4.6857 8.19741 14.4292 3.10549 8.10465 13.0686 1.54359 8.02616 11.6898 -7.74414e-12 7.96194 10.2926 -1.52529 7.912 8.87716 -3.03227 7.87632 7.44339 -4.52095 7.85492 5.99133 -5.99133 7.84778 4.52095 -7.44339 7.85492 3.03227 -8.87716 7.87632 1.52529 -10.2926 7.912 -4.2657e-12 -11.6898 7.96194 -1.54359 -13.0686 8.02616 -3.10549 -14.4292 8.10465 -4.6857 -15.7714 8.19741 17.013 3.15583 8.23265 15.7211 1.56648 8.15131 14.4063 -5.16798e-12 8.08248 13.0686 -1.54359 8.02616 11.7081 -3.06431 7.98236 10.3247 -4.56214 7.95107 8.91834 -6.03709 7.9323 7.48916 -7.48916 7.92604 6.03709 -8.91834 7.9323 4.56214 -10.3247 7.95107 3.06431 -11.7081 7.98236 1.54359 -13.0686 8.02616 -6.32205e-12 -14.4063 8.08248 -1.56648 -15.7211 8.15131 -3.15583 -17.013 8.23265 18.2225 1.59393 8.27573 16.9855 -2.75636e-12 8.20833 15.7211 -1.56648 8.15131 14.4292 -3.10549 8.10465 13.1098 -4.61705 8.06836 11.763 -6.10116 8.04244 10.3887 -7.5578 8.02688 8.98699 -8.98699 8.0217 7.5578 -10.3887 8.02688 6.10116 -11.763 8.04244 4.61705 -13.1098 8.06836 3.10549 -14.4292 8.10465 1.56648 -15.7211 8.15131 -8.51497e-12 -16.9855 8.20833 -1.59393 -18.2225 8.27573 19.4 -5.17808e-13 8.32664 18.2225 -1.59393 8.27573 17.013 -3.15583 8.23265 15.7714 -4.6857 8.19741 14.4978 -6.18353 8.16999 13.1922 -7.64933 8.15041 11.8545 -9.08309 8.13866 10.4848 -10.4848 8.13475 9.08309 -11.8545 8.13866 7.64933 -13.1922 8.15041 6.18353 -14.4978 8.16999 4.6857 -15.7714 8.19741 3.15583 -17.013 8.23265 1.59393 -18.2225 8.27573 -1.0866e-11 -19.4 8.32664 6.17817e-12 18.1599 20.0917 -1.4944 17.06 20.3663 -2.95844 15.9298 20.5987 -4.39215 14.7692 20.7888 -5.7955 13.5783 20.9367 -7.16851 12.3571 21.0423 -8.51116 11.1054 21.1056 -9.82347 9.82347 21.1268 -11.1054 8.51116 21.1056 -12.3571 7.16851 21.0423 -13.5783 5.7955 20.9367 -14.7692 4.39215 20.7888 -15.9298 2.95844 20.5987 -17.06 1.4944 20.3663 -18.1599 7.07345e-12 20.0917 1.4944 17.06 20.3663 3.62084e-12 15.9038 20.6578 -1.46838 14.7216 20.9044 -2.91076 13.5133 21.1062 -4.32712 12.279 21.2631 -5.71746 11.0187 21.3752 -7.0818 9.73243 21.4425 -8.42012 8.42012 21.4649 -9.73243 7.0818 21.4425 -11.0187 5.71746 21.3752 -12.279 4.32712 21.2631 -13.5133 2.91076 21.1062 -14.7216 1.46838 20.9044 -15.9038 3.42929e-12 20.6578 -17.06 -1.4944 20.3663 2.95844 15.9298 20.5987 1.46838 14.7216 20.9044 1.82203e-12 13.4916 21.1631 -1.44671 12.24 21.3748 -2.87174 10.9667 21.5394 -4.27509 9.67174 21.657 -5.65677 8.35509 21.7275 -7.01677 7.01677 21.751 -8.35509 5.65677 21.7275 -9.67174 4.27509 21.657 -10.9667 2.87174 21.5394 -12.24 1.44671 21.3748 -13.4916 -1.97638e-15 21.1631 -14.7216 -1.46838 20.9044 -15.9298 -2.95844 20.5987 4.39215 14.7692 20.7888 2.91076 13.5133 21.1062 1.44671 12.24 21.3748 7.87799e-13 10.9494 21.5945 -1.42937 9.64139 21.7654 -2.84139 8.31607 21.8875 -4.23607 6.97341 21.9607 -5.61341 5.61341 21.9851 -6.97341 4.23607 21.9607 -8.31607 2.84139 21.8875 -9.64139 1.42937 21.7654 -10.9494 -3.21223e-12 21.5945 -12.24 -1.44671 21.3748 -13.5133 -2.91076 21.1062 -14.7692 -4.39215 20.7888 5.7955 13.5783 20.9367 4.32712 12.279 21.2631 2.87174 10.9667 21.5394 1.42937 9.64139 21.7654 5.05251e-13 8.30307 21.9412 -1.41636 6.95174 22.0668 -2.81971 5.5874 22.1421 -4.21006 4.21006 22.1672 -5.5874 2.81971 22.1421 -6.95174 1.41636 22.0668 -8.30307 -6.18948e-12 21.9412 -9.64139 -1.42937 21.7654 -10.9667 -2.87174 21.5394 -12.279 -4.32712 21.2631 -13.5783 -5.7955 20.9367 7.16851 12.3571 21.0423 5.71746 11.0187 21.3752 4.27509 9.67174 21.657 2.84139 8.31607 21.8875 1.41636 6.95174 22.0668 9.80768e-13 5.57873 22.1948 -1.40769 4.19705 22.2717 -2.80671 2.80671 22.2973 -4.19705 1.40769 22.2717 -5.57873 -8.91709e-12 22.1948 -6.95174 -1.41636 22.0668 -8.31607 -2.84139 21.8875 -9.67174 -4.27509 21.657 -11.0187 -5.71746 21.3752 -12.3571 -7.16851 21.0423 8.51116 11.1054 21.1056 7.0818 9.73243 21.4425 5.65677 8.35509 21.7275 4.23607 6.97341 21.9607 2.81971 5.5874 22.1421 1.40769 4.19705 22.2717 2.20297e-12 2.80237 22.3494 -1.40335 1.40335 22.3753 -2.80237 -1.13797e-11 22.3494 -4.19705 -1.40769 22.2717 -5.5874 -2.81971 22.1421 -6.97341 -4.23607 21.9607 -8.35509 -5.65677 21.7275 -9.73243 -7.0818 21.4425 -11.1054 -8.51116 21.1056 9.82347 9.82347 21.1268 8.42012 8.42012 21.4649 7.01677 7.01677 21.751 5.61341 5.61341 21.9851 4.21006 4.21006 22.1672 2.80671 2.80671 22.2973 1.40335 1.40335 22.3753 4.1726e-12 -1.35732e-11 22.4013 -1.40335 -1.40335 22.3753 -2.80671 -2.80671 22.2973 -4.21006 -4.21006 22.1672 -5.61341 -5.61341 21.9851 -7.01677 -7.01677 21.751 -8.42012 -8.42012 21.4649 -9.82347 -9.82347 21.1268 11.1054 8.51116 21.1056 9.73243 7.0818 21.4425 8.35509 5.65677 21.7275 6.97341 4.23607 21.9607 5.5874 2.81971 22.1421 4.19705 1.40769 22.2717 2.80237 -1.21705e-11 22.3494 1.40335 -1.40335 22.3753 2.02479e-12 -2.80237 22.3494 -1.40769 -4.19705 22.2717 -2.81971 -5.5874 22.1421 -4.23607 -6.97341 21.9607 -5.65677 -8.35509 21.7275 -7.0818 -9.73243 21.4425 -8.51116 -11.1054 21.1056 12.3571 7.16851 21.0423 11.0187 5.71746 21.3752 9.67174 4.27509 21.657 8.31607 2.84139 21.8875 6.95174 1.41636 22.0668 5.57873 -1.06486e-11 22.1948 4.19705 -1.40769 22.2717 2.80671 -2.80671 22.2973 1.40769 -4.19705 22.2717 4.36207e-13 -5.57873 22.1948 -1.41636 -6.95174 22.0668 -2.84139 -8.31607 21.8875 -4.27509 -9.67174 21.657 -5.71746 -11.0187 21.3752 -7.16851 -12.3571 21.0423 13.5783 5.7955 20.9367 12.279 4.32712 21.2631 10.9667 2.87174 21.5394 9.64139 1.42937 21.7654 8.30307 -9.00147e-12 21.9412 6.95174 -1.41636 22.0668 5.5874 -2.81971 22.1421 4.21006 -4.21006 22.1672 2.81971 -5.5874 22.1421 1.41636 -6.95174 22.0668 -6.16174e-13 -8.30307 21.9412 -1.42937 -9.64139 21.7654 -2.87174 -10.9667 21.5394 -4.32712 -12.279 21.2631 -5.7955 -13.5783 20.9367 14.7692 4.39215 20.7888 13.5133 2.91076 21.1062 12.24 1.44671 21.3748 10.9494 -7.23971e-12 21.5945 9.64139 -1.42937 21.7654 8.31607 -2.84139 21.8875 6.97341 -4.23607 21.9607 5.61341 -5.61341 21.9851 4.23607 -6.97341 21.9607 2.84139 -8.31607 21.8875 1.42937 -9.64139 21.7654 -1.16329e-12 -10.9494 21.5945 -1.44671 -12.24 21.3748 -2.91076 -13.5133 21.1062 -4.39215 -14.7692 20.7888 15.9298 2.95844 20.5987 14.7216 1.46838 20.9044 13.4916 -5.36771e-12 21.1631 12.24 -1.44671 21.3748 10.9667 -2.87174 21.5394 9.67174 -4.27509 21.657 8.35509 -5.65677 21.7275 7.01677 -7.01677 21.751 5.65677 -8.35509 21.7275 4.27509 -9.67174 21.657 2.87174 -10.9667 21.5394 1.44671 -12.24 21.3748 -1.23102e-12 -13.4916 21.1631 -1.46838 -14.7216 20.9044 -2.95844 -15.9298 20.5987 17.06 1.4944 20.3663 15.9038 -3.39434e-12 20.6578 14.7216 -1.46838 20.9044 13.5133 -2.91076 21.1062 12.279 -4.32712 21.2631 11.0187 -5.71746 21.3752 9.73243 -7.0818 21.4425 8.42012 -8.42012 21.4649 7.0818 -9.73243 21.4425 5.71746 -11.0187 21.3752 4.32712 -12.279 21.2631 2.91076 -13.5133 21.1062 1.46838 -14.7216 20.9044 -8.41993e-13 -15.9038 20.6578 -1.4944 -17.06 20.3663 18.1599 -1.3145e-12 20.0917 17.06 -1.4944 20.3663 15.9298 -2.95844 20.5987 14.7692 -4.39215 20.7888 13.5783 -5.7955 20.9367 12.3571 -7.16851 21.0423 11.1054 -8.51116 21.1056 9.82347 -9.82347 21.1268 8.51116 -11.1054 21.1056 7.16851 -12.3571 21.0423 5.7955 -13.5783 20.9367 4.39215 -14.7692 20.7888 2.95844 -15.9298 20.5987 1.4944 -17.06 20.3663 -2.13163e-14 -18.1599 20.0917 1.28384e-11 17.4608 26.5675 -1.4174 16.3838 26.9675 -2.80862 15.2806 27.306 -4.17365 14.1513 27.583 -5.5125 12.9957 27.7984 -6.82516 11.814 27.9522 -8.11164 10.606 28.0445 -9.37193 9.37193 28.0753 -10.606 8.11164 28.0445 -11.814 6.82516 27.9522 -12.9957 5.5125 27.7984 -14.1513 4.17365 27.583 -15.2806 2.80862 27.306 -16.3838 1.4174 26.9675 -17.4608 6.61098e-12 26.5675 1.4174 16.3838 26.9675 9.14249e-12 15.2582 27.3585 -1.39496 14.1101 27.6892 -2.76747 12.9396 27.9599 -4.11754 11.7466 28.1704 -5.44516 10.5312 28.3208 -6.75035 9.29338 28.411 -8.03309 8.03309 28.441 -9.29338 6.75035 28.411 -10.5312 5.44516 28.3208 -11.7466 4.11754 28.1704 -12.9396 2.76747 27.9599 -14.1101 1.39496 27.6892 -15.2582 2.87491e-12 27.3585 -16.3838 -1.4174 26.9675 2.80862 15.2806 27.306 1.39496 14.1101 27.6892 6.10598e-12 12.9209 28.0135 -1.37625 11.713 28.2788 -2.7338 10.4863 28.4852 -4.07265 9.24101 28.6326 -5.3928 7.97698 28.721 -6.69424 6.69424 28.7505 -7.97698 5.3928 28.721 -9.24101 4.07265 28.6326 -10.4863 2.7338 28.4852 -11.713 1.37625 28.2788 -12.9209 -4.64001e-13 28.0135 -14.1101 -1.39496 27.6892 -15.2806 -2.80862 27.306 4.17365 14.1513 27.583 2.76747 12.9396 27.9599 1.37625 11.713 28.2788 3.72641e-12 10.4714 28.5398 -1.36129 9.21483 28.7428 -2.70762 7.94331 28.8877 -4.03899 6.65683 28.9747 -5.35539 5.35539 29.0037 -6.65683 4.03899 28.9747 -7.94331 2.70762 28.8877 -9.21483 1.36129 28.7428 -10.4714 -3.39288e-12 28.5398 -11.713 -1.37625 28.2788 -12.9396 -2.76747 27.9599 -14.1513 -4.17365 27.583 5.5125 12.9957 27.7984 4.11754 11.7466 28.1704 2.7338 10.4863 28.4852 1.36129 9.21483 28.7428 2.00185e-12 7.93209 28.9431 -1.35007 6.63813 29.0862 -2.68892 5.33295 29.172 -4.01654 4.01654 29.2007 -5.33295 2.68892 29.172 -6.63813 1.35007 29.0862 -7.93209 -5.88874e-12 28.9431 -9.21483 -1.36129 28.7428 -10.4863 -2.7338 28.4852 -11.7466 -4.11754 28.1704 -12.9957 -5.5125 27.7984 6.82516 11.814 27.9522 5.44516 10.5312 28.3208 4.07265 9.24101 28.6326 2.70762 7.94331 28.8877 1.35007 6.63813 29.0862 9.2845e-13 5.32547 29.2279 -1.34259 4.00532 29.313 -2.6777 2.6777 29.3413 -4.00532 1.34259 29.313 -5.32547 -7.93749e-12 29.2279 -6.63813 -1.35007 29.0862 -7.94331 -2.70762 28.8877 -9.24101 -4.07265 28.6326 -10.5312 -5.44516 28.3208 -11.814 -6.82516 27.9522 8.11164 10.606 28.0445 6.75035 9.29338 28.411 5.3928 7.97698 28.721 4.03899 6.65683 28.9747 2.68892 5.33295 29.172 1.34259 4.00532 29.313 5.00432e-13 2.67395 29.3976 -1.33885 1.33885 29.4257 -2.67395 -9.51843e-12 29.3976 -4.00532 -1.34259 29.313 -5.33295 -2.68892 29.172 -6.65683 -4.03899 28.9747 -7.97698 -5.3928 28.721 -9.29338 -6.75035 28.411 -10.606 -8.11164 28.0445 9.37193 9.37193 28.0753 8.03309 8.03309 28.441 6.69424 6.69424 28.7505 5.35539 5.35539 29.0037 4.01654 4.01654 29.2007 2.6777 2.6777 29.3413 1.33885 1.33885 29.4257 7.13566e-13 -1.06203e-11 29.4539 -1.33885 -1.33885 29.4257 -2.6777 -2.6777 29.3413 -4.01654 -4.01654 29.2007 -5.35539 -5.35539 29.0037 -6.69424 -6.69424 28.7505 -8.03309 -8.03309 28.441 -9.37193 -9.37193 28.0753 10.606 8.11164 28.0445 9.29338 6.75035 28.411 7.97698 5.3928 28.721 6.65683 4.03899 28.9747 5.33295 2.68892 29.172 4.00532 1.34259 29.313 2.67395 -9.89699e-12 29.3976 1.33885 -1.33885 29.4257 -3.8487e-14 -2.67395 29.3976 -1.34259 -4.00532 29.313 -2.68892 -5.33295 29.172 -4.03899 -6.65683 28.9747 -5.3928 -7.97698 28.721 -6.75035 -9.29338 28.411 -8.11164 -10.606 28.0445 11.814 6.82516 27.9522 10.5312 5.44516 28.3208 9.24101 4.07265 28.6326 7.94331 2.70762 28.8877 6.63813 1.35007 29.0862 5.32547 -8.99279e-12 29.2279 4.00532 -1.34259 29.313 2.6777 -2.6777 29.3413 1.34259 -4.00532 29.313 -4.77622e-13 -5.32547 29.2279 -1.35007 -6.63813 29.0862 -2.70762 -7.94331 28.8877 -4.07265 -9.24101 28.6326 -5.44516 -10.5312 28.3208 -6.82516 -11.814 27.9522 12.9957 5.5125 27.7984 11.7466 4.11754 28.1704 10.4863 2.7338 28.4852 9.21483 1.36129 28.7428 7.93209 -7.90402e-12 28.9431 6.63813 -1.35007 29.0862 5.33295 -2.68892 29.172 4.01654 -4.01654 29.2007 2.68892 -5.33295 29.172 1.35007 -6.63813 29.0862 -6.18785e-13 -7.93209 28.9431 -1.36129 -9.21483 28.7428 -2.7338 -10.4863 28.4852 -4.11754 -11.7466 28.1704 -5.5125 -12.9957 27.7984 14.1513 4.17365 27.583 12.9396 2.76747 27.9599 11.713 1.37625 28.2788 10.4714 -6.63792e-12 28.5398 9.21483 -1.36129 28.7428 7.94331 -2.70762 28.8877 6.65683 -4.03899 28.9747 5.35539 -5.35539 29.0037 4.03899 -6.65683 28.9747 2.70762 -7.94331 28.8877 1.36129 -9.21483 28.7428 -4.73534e-13 -10.4714 28.5398 -1.37625 -11.713 28.2788 -2.76747 -12.9396 27.9599 -4.17365 -14.1513 27.583 15.2806 2.80862 27.306 14.1101 1.39496 27.6892 12.9209 -5.18896e-12 28.0135 11.713 -1.37625 28.2788 10.4863 -2.7338 28.4852 9.24101 -4.07265 28.6326 7.97698 -5.3928 28.721 6.69424 -6.69424 28.7505 5.3928 -7.97698 28.721 4.07265 -9.24101 28.6326 2.7338 -10.4863 28.4852 1.37625 -11.713 28.2788 -4.90163e-14 -12.9209 28.0135 -1.39496 -14.1101 27.6892 -2.80862 -15.2806 27.306 16.3838 1.4174 26.9675 15.2582 -3.5638e-12 27.3585 14.1101 -1.39496 27.6892 12.9396 -2.76747 27.9599 11.7466 -4.11754 28.1704 10.5312 -5.44516 28.3208 9.29338 -6.75035 28.411 8.03309 -8.03309 28.441 6.75035 -9.29338 28.411 5.44516 -10.5312 28.3208 4.11754 -11.7466 28.1704 2.76747 -12.9396 27.9599 1.39496 -14.1101 27.6892 6.37573e-13 -15.2582 27.3585 -1.4174 -16.3838 26.9675 17.4608 -1.75671e-12 26.5675 16.3838 -1.4174 26.9675 15.2806 -2.80862 27.306 14.1513 -4.17365 27.583 12.9957 -5.5125 27.7984 11.814 -6.82516 27.9522 10.606 -8.11164 28.0445 9.37193 -9.37193 28.0753 8.11164 -10.606 28.0445 6.82516 -11.814 27.9522 5.5125 -12.9957 27.7984 4.17365 -14.1513 27.583 2.80862 -15.2806 27.306 1.4174 -16.3838 26.9675 1.5804e-12 -17.4608 26.5675 1.71822e-11 16.6853 32.1748 -1.34059 15.6423 32.6865 -2.65829 14.5764 33.1195 -3.9531 13.4875 33.4738 -5.22502 12.3759 33.7494 -6.47405 11.2413 33.9462 -7.70019 10.0838 34.0643 -8.90344 8.90344 34.1036 -10.0838 7.70019 34.0643 -11.2413 6.47405 33.9462 -12.3759 5.22502 33.7494 -13.4875 3.9531 33.4738 -14.5764 2.65829 33.1195 -15.6423 1.34059 32.6865 -16.6853 5.68606e-12 32.1748 1.34059 15.6423 32.6865 1.28188e-11 14.5567 33.1969 -1.32097 13.4516 33.6287 -2.62232 12.3268 33.9821 -3.90405 11.1824 34.2569 -5.16616 10.0184 34.4532 -6.40865 8.83477 34.571 -7.63152 7.63152 34.6102 -8.83477 6.40865 34.571 -10.0184 5.16616 34.4532 -11.1824 3.90405 34.2569 -12.3268 2.62232 33.9821 -13.4516 1.32097 33.6287 -14.5567 2.0349e-12 33.1969 -15.6423 -1.34059 32.6865 2.65829 14.5764 33.1195 1.32097 13.4516 33.6287 9.00643e-12 12.3105 34.0596 -1.30462 11.153 34.4121 -2.59289 9.97916 34.6863 -3.86481 8.78899 34.8822 -5.12038 7.58247 34.9997 -6.3596 6.3596 35.0389 -7.58247 5.12038 34.9997 -8.78899 3.86481 34.8822 -9.97916 2.59289 34.6863 -11.153 1.30462 34.4121 -12.3105 -1.10287e-12 34.0596 -13.4516 -1.32097 33.6287 -14.5764 -2.65829 33.1195 3.9531 13.4875 33.4738 2.62232 12.3268 33.9821 1.30462 11.153 34.4121 5.74076e-12 9.96608 34.764 -1.29154 8.7661 35.0377 -2.57 7.55304 35.2332 -3.83538 6.3269 35.3505 -5.08768 5.08768 35.3896 -6.3269 3.83538 35.3505 -7.55304 2.57 35.2332 -8.7661 1.29154 35.0377 -9.96608 -3.7123e-12 34.764 -11.153 -1.30462 34.4121 -12.3268 -2.62232 33.9821 -13.4875 -3.9531 33.4738 5.22502 12.3759 33.7494 3.90405 11.1824 34.2569 2.59289 9.97916 34.6863 1.29154 8.7661 35.0377 3.02165e-12 7.54323 35.311 -1.28173 6.31055 35.5062 -2.55365 5.06806 35.6233 -3.81576 3.81576 35.6623 -5.06806 2.55365 35.6233 -6.31055 1.28173 35.5062 -7.54323 -5.7663e-12 35.311 -8.7661 -1.29154 35.0377 -9.97916 -2.59289 34.6863 -11.1824 -3.90405 34.2569 -12.3759 -5.22502 33.7494 6.47405 11.2413 33.9462 5.16616 10.0184 34.4532 3.86481 8.78899 34.8822 2.57 7.55304 35.2332 1.28173 6.31055 35.5062 8.42328e-13 5.06152 35.7012 -1.27519 3.80595 35.8182 -2.54384 2.54384 35.8572 -3.80595 1.27519 35.8182 -5.06152 -7.24603e-12 35.7012 -6.31055 -1.28173 35.5062 -7.55304 -2.57 35.2332 -8.78899 -3.86481 34.8822 -10.0184 -5.16616 34.4532 -11.2413 -6.47405 33.9462 7.70019 10.0838 34.0643 6.40865 8.83477 34.571 5.12038 7.58247 34.9997 3.83538 6.3269 35.3505 2.55365 5.06806 35.6233 1.27519 3.80595 35.8182 -7.99944e-13 2.54057 35.9351 -1.27192 1.27192 35.9741 -2.54057 -8.12518e-12 35.9351 -3.80595 -1.27519 35.8182 -5.06806 -2.55365 35.6233 -6.3269 -3.83538 35.3505 -7.58247 -5.12038 34.9997 -8.83477 -6.40865 34.571 -10.0838 -7.70019 34.0643 8.90344 8.90344 34.1036 7.63152 7.63152 34.6102 6.3596 6.3596 35.0389 5.08768 5.08768 35.3896 3.81576 3.81576 35.6623 2.54384 2.54384 35.8572 1.27192 1.27192 35.9741 -1.90911e-12 -8.39085e-12 36.013 -1.27192 -1.27192 35.9741 -2.54384 -2.54384 35.8572 -3.81576 -3.81576 35.6623 -5.08768 -5.08768 35.3896 -6.3596 -6.3596 35.0389 -7.63152 -7.63152 34.6102 -8.90344 -8.90344 34.1036 10.0838 7.70019 34.0643 8.83477 6.40865 34.571 7.58247 5.12038 34.9997 6.3269 3.83538 35.3505 5.06806 2.55365 35.6233 3.80595 1.27519 35.8182 2.54057 -8.13312e-12 35.9351 1.27192 -1.27192 35.9741 -1.59468e-12 -2.54057 35.9351 -1.27519 -3.80595 35.8182 -2.55365 -5.06806 35.6233 -3.83538 -6.3269 35.3505 -5.12038 -7.58247 34.9997 -6.40865 -8.83477 34.571 -7.70019 -10.0838 34.0643 11.2413 6.47405 33.9462 10.0184 5.16616 34.4532 8.78899 3.86481 34.8822 7.55304 2.57 35.2332 6.31055 1.28173 35.5062 5.06152 -7.66388e-12 35.7012 3.80595 -1.27519 35.8182 2.54384 -2.54384 35.8572 1.27519 -3.80595 35.8182 -1.17636e-12 -5.06152 35.7012 -1.28173 -6.31055 35.5062 -2.57 -7.55304 35.2332 -3.86481 -8.78899 34.8822 -5.16616 -10.0184 34.4532 -6.47405 -11.2413 33.9462 12.3759 5.22502 33.7494 11.1824 3.90405 34.2569 9.97916 2.59289 34.6863 8.7661 1.29154 35.0377 7.54323 -6.97687e-12 35.311 6.31055 -1.28173 35.5062 5.06806 -2.55365 35.6233 3.81576 -3.81576 35.6623 2.55365 -5.06806 35.6233 1.28173 -6.31055 35.5062 -6.50889e-13 -7.54323 35.311 -1.29154 -8.7661 35.0377 -2.59289 -9.97916 34.6863 -3.90405 -11.1824 34.2569 -5.22502 -12.3759 33.7494 13.4875 3.9531 33.4738 12.3268 2.62232 33.9821 11.153 1.30462 34.4121 9.96608 -6.07088e-12 34.764 8.7661 -1.29154 35.0377 7.55304 -2.57 35.2332 6.3269 -3.83538 35.3505 5.08768 -5.08768 35.3896 3.83538 -6.3269 35.3505 2.57 -7.55304 35.2332 1.29154 -8.7661 35.0377 -2.13995e-14 -9.96608 34.764 -1.30462 -11.153 34.4121 -2.62232 -12.3268 33.9821 -3.9531 -13.4875 33.4738 14.5764 2.65829 33.1195 13.4516 1.32097 33.6287 12.3105 -4.95065e-12 34.0596 11.153 -1.30462 34.4121 9.97916 -2.59289 34.6863 8.78899 -3.86481 34.8822 7.58247 -5.12038 34.9997 6.3596 -6.3596 35.0389 5.12038 -7.58247 34.9997 3.86481 -8.78899 34.8822 2.59289 -9.97916 34.6863 1.30462 -11.153 34.4121 7.12042e-13 -12.3105 34.0596 -1.32097 -13.4516 33.6287 -2.65829 -14.5764 33.1195 15.6423 1.34059 32.6865 14.5567 -3.61405e-12 33.1969 13.4516 -1.32097 33.6287 12.3268 -2.62232 33.9821 11.1824 -3.90405 34.2569 10.0184 -5.16616 34.4532 8.83477 -6.40865 34.571 7.63152 -7.63152 34.6102 6.40865 -8.83477 34.571 5.16616 -10.0184 34.4532 3.90405 -11.1824 34.2569 2.62232 -12.3268 33.9821 1.32097 -13.4516 33.6287 1.55348e-12 -14.5567 33.1969 -1.34059 -15.6423 32.6865 16.6853 -2.05508e-12 32.1748 15.6423 -1.34059 32.6865 14.5764 -2.65829 33.1195 13.4875 -3.9531 33.4738 12.3759 -5.22502 33.7494 11.2413 -6.47405 33.9462 10.0838 -7.70019 34.0643 8.90344 -8.90344 34.1036 7.70019 -10.0838 34.0643 6.47405 -11.2413 33.9462 5.22502 -12.3759 33.7494 3.9531 -13.4875 33.4738 2.65829 -14.5764 33.1195 1.34059 -15.6423 32.6865 2.50044e-12 -16.6853 32.1748 1.9531e-11 15.8218 37.7821 -1.26435 14.8259 38.4055 -2.50805 13.8094 38.9331 -3.73111 12.7722 39.3647 -4.93351 11.7143 39.7004 -6.11527 10.6358 39.9401 -7.27637 9.53663 40.084 -8.41683 8.41683 40.132 -9.53663 7.27637 40.084 -10.6358 6.11527 39.9401 -11.7143 4.93351 39.7004 -12.7722 3.73111 39.3647 -13.8094 2.50805 38.9331 -14.8259 1.26435 38.4055 -15.8218 4.20597e-12 37.7821 1.26435 14.8259 38.4055 1.48748e-11 13.7917 39.0353 -1.24665 12.7397 39.5682 -2.47561 11.6701 40.0042 -3.68686 10.5827 40.3434 -4.88041 9.47764 40.5856 -6.05627 8.35488 40.7309 -7.21442 7.21442 40.7794 -8.35488 6.05627 40.7309 -9.47764 4.88041 40.5856 -10.5827 3.68686 40.3434 -11.6701 2.47561 40.0042 -12.7397 1.24665 39.5682 -13.7917 8.4376e-13 39.0353 -14.8259 -1.26435 38.4055 2.50805 13.8094 38.9331 1.24665 12.7397 39.5682 1.06766e-11 11.6553 40.1057 -1.2319 10.5561 40.5454 -2.44906 9.44224 40.8875 -3.65146 8.31358 41.1317 -4.83911 7.17018 41.2783 -6.01202 6.01202 41.3272 -7.17018 4.83911 41.2783 -8.31358 3.65146 41.1317 -9.44224 2.44906 40.8875 -10.5561 1.2319 40.5454 -11.6553 -1.96189e-12 40.1057 -12.7397 -1.24665 39.5682 -13.8094 -2.50805 38.9331 3.73111 12.7722 39.3647 2.47561 11.6701 40.0042 1.2319 10.5561 40.5454 6