<?xml version="1.0"?> 
<VTKFile type="StructuredGrid" version="0.1"> 
<StructuredGrid WholeExtent="0 14 0 14 0 29"> 
<Piece Extent="0 14 0 14 0 29"> 
<PointData>
<DataArray type="Float32" Name="efield" format="ascii" NumberOfComponents="3"> 
-0.854506 -7.55245 7.84509 -0.579786 -7.84942 6.94474 -0.32581 -8.14639 6.32403 -0.0826752 -8.44335 5.97479 0.156056 -8.74032 5.89503 0.394751 -9.03729 6.08918 0.636478 -9.33425 6.56879 0.883455 -9.63122 7.35359 0.547976 -11.7552 7.49161 0.273655 -13.8792 6.54508 0.0668355 -16.0032 4.31831 -0.0675167 -18.1272 0.541873 -0.125456 -20.2512 -5.16026 -0.103811 -22.3752 -13.324 -3.37027e-15 -24.4992 -24.7349 -1.29141 -7.0325 8.18536 -1.13689 -7.32103 7.19122 -0.986756 -7.60568 6.50539 -0.836796 -7.887 6.11753 -0.684149 -8.16536 6.02459 -0.52681 -8.44103 6.23104 -0.363343 -8.71421 6.74967 -0.192701 -8.98503 7.60301 -0.767382 -11.1591 7.80902 -1.26278 -13.3173 6.93165 -1.67596 -15.46 4.7761 -2.00472 -17.5877 1.06925 -2.24748 -19.7007 -4.5776 -2.40308 -21.7991 -12.7307 -2.4707 -23.8833 -24.2418 -1.78309 -6.56733 8.47328 -1.71253 -6.83683 7.39861 -1.63882 -7.10083 6.65665 -1.56016 -7.35984 6.23496 -1.4753 -7.6142 6.12929 -1.38337 -7.86419 6.3439 -1.28377 -8.11001 6.8924 -1.17608 -8.35182 7.79949 -1.97557 -10.5198 8.06381 -2.68597 -12.658 7.24987 -3.30648 -14.7671 5.16565 -3.83676 -16.8475 1.53743 -4.27677 -18.8997 -4.03113 -4.62678 -20.924 -12.1288 -4.88724 -22.9208 -23.6616 -2.29646 -6.12386 8.70885 -2.28834 -6.37036 7.5675 -2.27349 -6.6104 6.77896 -2.25121 -6.84436 6.32884 -2.22101 -7.0725 6.21174 -2.18259 -7.29506 6.43153 -2.13577 -7.51219 7.00238 -2.08046 -7.72404 7.95055 -3.089 -9.84536 8.26242 -4.00422 -11.9244 7.50266 -4.82665 -13.9617 5.48275 -5.55705 -15.958 1.93019 -6.19639 -17.9138 -3.55555 -6.74582 -19.8295 -11.5793 -7.20661 -21.7055 -23.0907 -2.81394 -5.68449 8.89207 -2.85453 -5.90652 7.69837 -2.88677 -6.12134 6.87321 -2.91042 -6.32922 6.40053 -2.92538 -6.53037 6.27392 -2.93163 -6.72497 6.49685 -2.92919 -6.91316 7.08377 -2.91815 -7.09507 8.0621 -4.11993 -9.13965 8.41057 -5.22801 -11.1305 7.69386 -6.24361 -13.0683 5.72697 -7.16812 -14.954 2.2393 -8.00304 -16.788 -3.17163 -8.74998 -18.5711 -11.1219 -9.41063 -20.3037 -22.5939 -3.32562 -5.23932 9.02295 -3.40589 -5.4362 7.7916 -3.47714 -5.6252 6.94006 -3.5394 -5.80654 6.45104 -3.59272 -5.9804 6.31732 -3.63721 -6.14693 6.54202 -3.673 -6.30627 7.13973 -3.70023 -6.45855 8.13864 -5.07998 -8.40333 8.51293 -6.36838 -10.2841 7.82728 -7.56696 -12.1017 5.89957 -8.67732 -13.8573 2.4611 -9.70117 -15.5515 -2.89134 -10.6402 -17.1853 -10.781 -11.4963 -18.7594 -22.2135 -3.82592 -4.78277 9.10147 -3.93983 -4.95371 7.84743 -4.04463 -5.11622 6.97999 -4.14045 -5.27046 6.48107 -4.22741 -5.41662 6.34295 -4.30566 -5.55483 6.56852 -4.37536 -5.68525 7.17244 -4.43668 -5.80801 8.18332 -5.97975 -7.6344 8.57295 -7.43592 -9.38771 7.906 -8.80672 -11.0691 6.00226 -10.0938 -12.6799 2.59434 -11.2987 -14.221 -2.72112 -12.4231 -15.6936 -10.5714 -13.4687 -17.099 -21.9759 -4.31193 -4.31193 9.12765 -4.45557 -4.45557 7.86602 -4.59033 -4.59033 6.99327 -4.71638 -4.71638 6.49104 -4.83386 -4.83386 6.35143 -4.94295 -4.94295 6.57726 -5.04379 -5.04379 7.1832 -5.13654 -5.13654 8.198 -6.8286 -6.8286 8.59272 -8.43991 -8.43991 7.93202 -9.97189 -9.97189 6.03632 -11.4259 -11.4259 2.63875 -12.8035 -12.8035 -2.66408 -14.1059 -14.1059 -10.5007 -15.3347 -15.3347 -21.8952 -4.78277 -3.82592 9.10147 -4.95371 -3.93983 7.84743 -5.11622 -4.04463 6.97999 -5.27046 -4.14045 6.48107 -5.41662 -4.22741 6.34295 -5.55483 -4.30566 6.56852 -5.68525 -4.37536 7.17244 -5.80801 -4.43668 8.18332 -7.6344 -5.97975 8.57295 -9.38771 -7.43592 7.906 -11.0691 -8.80672 6.00226 -12.6799 -10.0938 2.59434 -14.221 -11.2987 -2.72112 -15.6936 -12.4231 -10.5714 -17.099 -13.4687 -21.9759 -5.23932 -3.32562 9.02295 -5.4362 -3.40589 7.7916 -5.6252 -3.47714 6.94006 -5.80654 -3.5394 6.45104 -5.9804 -3.59272 6.31732 -6.14693 -3.63721 6.54202 -6.30627 -3.673 7.13973 -6.45855 -3.70023 8.13864 -8.40333 -5.07998 8.51293 -10.2841 -6.36838 7.82728 -12.1017 -7.56696 5.89957 -13.8573 -8.67732 2.4611 -15.5515 -9.70117 -2.89134 -17.1853 -10.6402 -10.781 -18.7594 -11.4963 -22.2135 -5.68449 -2.81394 8.89207 -5.90652 -2.85453 7.69837 -6.12134 -2.88677 6.87321 -6.32922 -2.91042 6.40053 -6.53037 -2.92538 6.27392 -6.72497 -2.93163 6.49685 -6.91316 -2.92919 7.08377 -7.09507 -2.91815 8.0621 -9.13965 -4.11993 8.41057 -11.1305 -5.22801 7.69386 -13.0683 -6.24361 5.72697 -14.954 -7.16812 2.2393 -16.788 -8.00304 -3.17163 -18.5711 -8.74998 -11.1219 -20.3037 -9.41063 -22.5939 -6.12386 -2.29646 8.70885 -6.37036 -2.28834 7.5675 -6.6104 -2.27349 6.77896 -6.84436 -2.25121 6.32884 -7.0725 -2.22101 6.21174 -7.29506 -2.18259 6.43153 -7.51219 -2.13577 7.00238 -7.72404 -2.08046 7.95055 -9.84536 -3.089 8.26242 -11.9244 -4.00422 7.50266 -13.9617 -4.82665 5.48275 -15.958 -5.55705 1.93019 -17.9138 -6.19639 -3.55555 -19.8295 -6.74582 -11.5793 -21.7055 -7.20661 -23.0907 -6.56733 -1.78309 8.47328 -6.83683 -1.71253 7.39861 -7.10083 -1.63882 6.65665 -7.35984 -1.56016 6.23496 -7.6142 -1.4753 6.12929 -7.86419 -1.38337 6.3439 -8.11001 -1.28377 6.8924 -8.35182 -1.17608 7.79949 -10.5198 -1.97557 8.06381 -12.658 -2.68597 7.24987 -14.7671 -3.30648 5.16565 -16.8475 -3.83676 1.53743 -18.8997 -4.27677 -4.03113 -20.924 -4.62678 -12.1288 -22.9208 -4.88724 -23.6616 -7.0325 -1.29141 8.18536 -7.32103 -1.13689 7.19122 -7.60568 -0.986756 6.50539 -7.887 -0.836796 6.11753 -8.16536 -0.684149 6.02459 -8.44103 -0.52681 6.23104 -8.71421 -0.363343 6.74967 -8.98503 -0.192701 7.60301 -11.1591 -0.767382 7.80902 -13.3173 -1.26278 6.93165 -15.46 -1.67596 4.7761 -17.5877 -2.00472 1.06925 -19.7007 -2.24748 -4.5776 -21.7991 -2.40308 -12.7307 -23.8833 -2.4707 -24.2418 -7.55245 -0.854506 7.84509 -7.84942 -0.579786 6.94474 -8.14639 -0.32581 6.32403 -8.44335 -0.0826752 5.97479 -8.74032 0.156056 5.89503 -9.03729 0.394751 6.08918 -9.33425 0.636478 6.56879 -9.63122 0.883455 7.35359 -11.7552 0.547976 7.49161 -13.8792 0.273655 6.54508 -16.0032 0.0668355 4.31831 -18.1272 -0.0675167 0.541873 -20.2512 -0.125456 -5.16026 -22.3752 -0.103811 -13.324 -24.4992 0 -24.7349 0.365125 -4.85764 1.38871 0.262146 -5.6667 1.38657 0.168948 -6.43918 1.21642 0.0950969 -7.16649 0.879334 0.0462819 -7.84053 0.373923 0.0258403 -8.45336 -0.303828 0.0355622 -8.9969 -1.16088 0.0761331 -9.46262 -2.20754 0.300947 -9.23727 -3.10684 0.419883 -8.99322 -3.95778 0.453244 -8.7332 -4.76499 0.416771 -8.45948 -5.53292 0.322838 -8.17387 -6.26594 0.181283 -7.87776 -6.96845 -1.5961e-14 -7.57212 -7.64498 0.169064 -4.30759 1.56984 -0.115533 -5.15835 1.59469 -0.361863 -5.96799 1.45577 -0.567116 -6.72822 1.15452 -0.729653 -7.43119 0.689657 -0.848616 -8.06921 0.0569954 -0.923708 -8.63438 -0.750883 -0.95505 -9.1183 -1.74507 -0.789351 -9.04116 -2.65718 -0.690597 -8.92308 -3.54541 -0.644961 -8.76744 -4.41692 -0.641559 -8.57646 -5.27965 -0.671737 -8.35123 -6.14258 -0.728573 -8.09165 -7.01623 -0.806514 -7.79624 -7.91326 -0.102775 -3.83332 1.72309 -0.520712 -4.69875 1.76616 -0.887058 -5.52128 1.64963 -1.20077 -6.29246 1.3754 -1.46125 -7.0044 0.942452 -1.66819 -7.6495 0.34656 -1.82147 -8.22002 -0.419977 -1.9211 -8.70773 -1.36883 -1.81826 -8.73575 -2.28159 -1.75016 -8.70852 -3.18877 -1.70759 -8.62916 -4.10003 -1.68314 -8.49928 -5.02663 -1.67073 -8.3189 -5.98203 -1.66532 -8.08625 -6.98272 -1.66259 -7.79743 -8.04942 -0.418047 -3.40248 1.84849 -0.938611 -4.26652 1.90354 -1.40187 -5.08617 1.80262 -1.80664 -5.85301 1.5482 -2.15203 -6.55931 1.13954 -2.43736 -7.19771 0.57252 -2.66205 -7.76078 -0.160696 -2.82545 -8.24063 -1.07217 -2.78462 -8.33887 -1.97946 -2.75201 -8.37357 -2.89445 -2.72165 -8.34725 -3.829 -2.68849 -8.26072 -4.79736 -2.6481 -8.11292 -5.817 -2.59636 -7.90063 -6.90983 -2.52926 -7.61784 -8.10398 -0.758781 -2.99711 1.94601 -1.36083 -3.84884 2.00868 -1.90393 -4.65429 1.91826 -2.38598 -5.40538 1.67776 -2.80528 -6.09482 1.28678 -3.16036 -6.71568 0.741356 -3.44978 -7.26104 0.0335988 -3.67202 -7.72357 -0.848792 -3.68895 -7.86352 -1.74854 -3.69241 -7.93643 -2.66525 -3.67867 -7.94411 -3.61257 -3.64422 -7.88661 -4.60719 -3.58554 -7.76202 -5.66992 -3.49877 -7.566 -6.82722 -3.37938 -7.2911 -8.11351 -1.11455 -2.60677 2.01568 -1.78259 -3.43766 2.08288 -2.39228 -4.21992 1.9991 -2.94038 -4.94611 1.76775 -3.42413 -5.60955 1.38873 -3.84108 -6.20399 0.85822 -4.18881 -6.7232 0.168344 -4.46476 -7.16056 -0.693334 -4.53258 -7.31884 -1.58611 -4.56939 -7.41056 -2.50189 -4.57302 -7.43682 -3.45562 -4.54093 -7.39706 -4.46581 -4.47002 -7.28878 -5.55573 -4.35619 -7.10701 -6.75528 -4.19395 -6.84357 -8.10366 -1.47932 -2.22543 2.05747 -2.20139 -3.02788 2.12706 -2.86697 -3.77905 2.04691 -3.4716 -4.47233 1.82073 -4.01145 -5.10187 1.44861 -4.48302 -5.66225 0.926836 -4.88287 -6.14806 0.247552 -5.20735 -6.55358 -0.60174 -5.31695 -6.71085 -1.48975 -5.3817 -6.80554 -2.40415 -5.40049 -6.83808 -3.36069 -5.37144 -6.80742 -4.37898 -5.29155 -6.71074 -5.48382 -5.1563 -6.54291 -6.70721 -4.95906 -6.29571 -8.09137 -1.84994 -1.84994 2.07141 -2.61635 -2.61635 2.14172 -3.32876 -3.32876 2.06273 -3.98157 -3.98157 1.83822 -4.56989 -4.56989 1.46836 -5.08923 -5.08923 0.949456 -5.53514 -5.53514 0.27368 -5.90288 -5.90288 -0.571492 -6.04305 -6.04305 -1.45782 -6.12788 -6.12788 -2.37163 -6.15711 -6.15711 -3.32894 -6.12929 -6.12929 -4.34973 -6.04145 -6.04145 -5.45931 -5.88868 -5.88868 -6.6904 -5.66333 -5.66333 -8.08623 -2.22543 -1.47932 2.05747 -3.02788 -2.20139 2.12706 -3.77905 -2.86697 2.04691 -4.47233 -3.4716 1.82073 -5.10187 -4.01145 1.44861 -5.66225 -4.48302 0.926836 -6.14806 -4.88287 0.247552 -6.55358 -5.20735 -0.60174 -6.71085 -5.31695 -1.48975 -6.80554 -5.3817 -2.40415 -6.83808 -5.40049 -3.36069 -6.80742 -5.37144 -4.37898 -6.71074 -5.29155 -5.48382 -6.54291 -5.1563 -6.70721 -6.29571 -4.95906 -8.09137 -2.60677 -1.11455 2.01568 -3.43766 -1.78259 2.08288 -4.21992 -2.39228 1.9991 -4.94611 -2.94038 1.76775 -5.60955 -3.42413 1.38873 -6.20399 -3.84108 0.85822 -6.7232 -4.18881 0.168344 -7.16056 -4.46476 -0.693334 -7.31884 -4.53258 -1.58611 -7.41056 -4.56939 -2.50189 -7.43682 -4.57302 -3.45562 -7.39706 -4.54093 -4.46581 -7.28878 -4.47002 -5.55573 -7.10701 -4.35619 -6.75528 -6.84357 -4.19395 -8.10366 -2.99711 -0.758781 1.94601 -3.84884 -1.36083 2.00868 -4.65429 -1.90393 1.91826 -5.40538 -2.38598 1.67776 -6.09482 -2.80528 1.28678 -6.71568 -3.16036 0.741356 -7.26104 -3.44978 0.0335988 -7.72357 -3.67202 -0.848792 -7.86352 -3.68895 -1.74854 -7.93643 -3.69241 -2.66525 -7.94411 -3.67867 -3.61257 -7.88661 -3.64422 -4.60719 -7.76202 -3.58554 -5.66992 -7.566 -3.49877 -6.82722 -7.2911 -3.37938 -8.11351 -3.40248 -0.418047 1.84849 -4.26652 -0.938611 1.90354 -5.08617 -1.40187 1.80262 -5.85301 -1.80664 1.5482 -6.55931 -2.15203 1.13954 -7.19771 -2.43736 0.57252 -7.76078 -2.66205 -0.160696 -8.24063 -2.82545 -1.07217 -8.33887 -2.78462 -1.97946 -8.37357 -2.75201 -2.89445 -8.34725 -2.72165 -3.829 -8.26072 -2.68849 -4.79736 -8.11292 -2.6481 -5.817 -7.90063 -2.59636 -6.90983 -7.61784 -2.52926 -8.10398 -3.83332 -0.102775 1.72309 -4.69875 -0.520712 1.76616 -5.52128 -0.887058 1.64963 -6.29246 -1.20077 1.3754 -7.0044 -1.46125 0.942452 -7.6495 -1.66819 0.34656 -8.22002 -1.82147 -0.419977 -8.70773 -1.9211 -1.36883 -8.73575 -1.81826 -2.28159 -8.70852 -1.75016 -3.18877 -8.62916 -1.70759 -4.10003 -8.49928 -1.68314 -5.02663 -8.3189 -1.67073 -5.98203 -8.08625 -1.66532 -6.98272 -7.79743 -1.66259 -8.04942 -4.30759 0.169064 1.56984 -5.15835 -0.115533 1.59469 -5.96799 -0.361863 1.45577 -6.72822 -0.567116 1.15452 -7.43119 -0.729653 0.689657 -8.06921 -0.848616 0.0569954 -8.63438 -0.923708 -0.750883 -9.1183 -0.95505 -1.74507 -9.04116 -0.789351 -2.65718 -8.92308 -0.690597 -3.54541 -8.76744 -0.644961 -4.41692 -8.57646 -0.641559 -5.27965 -8.35123 -0.671737 -6.14258 -8.09165 -0.728573 -7.01623 -7.79624 -0.806514 -7.91326 -4.85764 0.365125 1.38871 -5.6667 0.262146 1.38657 -6.43918 0.168948 1.21642 -7.16649 0.0950969 0.879334 -7.84053 0.0462819 0.373923 -8.45336 0.0258403 -0.303828 -8.9969 0.0355622 -1.16088 -9.46262 0.0761331 -2.20754 -9.23727 0.300947 -3.10684 -8.99322 0.419883 -3.95778 -8.7332 0.453244 -4.76499 -8.45948 0.416771 -5.53292 -8.17387 0.322838 -6.26594 -7.87776 0.181283 -6.96845 -7.57212 -1.27966e-14 -7.64498 -0.178911 -4.2334 -2.8658 0.00241471 -4.57875 -3.21737 0.0887112 -4.90048 -3.5803 0.126676 -5.19824 -3.94703 0.142929 -5.47257 -4.31096 0.153959 -5.72466 -4.66647 0.17073 -5.95628 -5.00881 0.201024 -6.16959 -5.33402 0.27434 -6.20244 -5.5515 0.290534 -6.22782 -5.74653 0.266676 -6.24789 -5.91912 0.215981 -6.26481 -6.06925 0.149014 -6.2808 -6.19671 0.0745139 -6.29829 -6.30094 -2.22019e-14 -6.31998 -6.38079 -0.401304 -3.87658 -2.73123 -0.361057 -4.28553 -3.03408 -0.373539 -4.65893 -3.36038 -0.409091 -4.9979 -3.70113 -0.449729 -5.30326 -4.04848 -0.483863 -5.57596 -4.39585 -0.503656 -5.81713 -4.738 -0.503591 -6.0281 -5.07095 -0.478986 -6.13754 -5.34844 -0.487394 -6.22091 -5.59819 -0.515938 -6.28185 -5.82021 -0.554549 -6.32345 -6.01514 -0.595179 -6.34832 -6.18413 -0.631288 -6.35856 -6.32878 -0.6575 -6.35578 -6.45118 -0.644984 -3.54105 -2.61737 -0.719162 -3.98803 -2.88232 -0.817642 -4.39433 -3.18004 -0.920557 -4.76036 -3.50049 -1.01522 -5.08616 -3.83498 -1.09322 -5.37187 -4.17634 -1.14879 -5.6178 -4.51909 -1.17795 -5.82439 -4.85946 -1.20195 -5.98861 -5.18052 -1.23783 -6.11262 -5.46759 -1.27634 -6.20074 -5.72108 -1.31026 -6.25647 -5.94268 -1.33386 -6.28242 -6.13534 -1.34256 -6.28021 -6.30333 -1.33272 -6.25036 -6.45236 -0.903059 -3.21991 -2.52421 -1.07167 -3.68579 -2.76045 -1.24498 -4.10957 -3.03659 -1.4088 -4.49022 -3.34184 -1.55369 -4.82664 -3.66688 -1.67321 -5.11801 -4.00414 -1.76294 -5.3638 -4.34807 -1.81984 -5.56365 -4.6952 -1.89043 -5.76411 -5.04748 -1.95448 -5.9144 -5.35943 -2.00588 -6.01902 -5.63204 -2.03986 -6.08146 -5.86829 -2.05264 -6.10416 -6.07309 -2.04121 -6.08827 -6.25339 -2.0032 -6.03342 -6.41844 -1.17134 -2.90898 -2.45175 -1.41846 -3.37849 -2.6671 -1.65643 -3.80662 -2.92767 -1.87446 -4.19079 -3.2221 -2.06503 -4.52875 -3.54057 -2.22293 -4.81877 -3.87528 -2.34453 -5.05958 -4.22064 -2.42737 -5.25018 -4.57352 -2.54089 -5.471 -4.94758 -2.63214 -5.63563 -5.27556 -2.69762 -5.74834 -5.55913 -2.73459 -5.81239 -5.80252 -2.74089 -5.82991 -6.01247 -2.71465 -5.80162 -6.19838 -2.65425 -5.7266 -6.37255 -1.44723 -2.60566 -2.4 -1.75946 -3.06588 -2.60119 -2.05257 -3.48681 -2.85133 -2.31783 -3.86445 -3.13861 -2.54892 -4.19554 -3.45288 -2.74138 -4.47759 -3.78614 -2.89206 -4.70874 -4.13285 -2.99875 -4.88755 -4.49013 -3.15018 -5.11506 -4.8785 -3.26629 -5.28407 -5.21624 -3.34572 -5.39827 -5.50562 -3.38741 -5.46051 -5.7519 -3.39044 -5.47251 -5.96331 -3.35376 -5.43469 -6.15118 -3.27608 -5.34582 -6.33013 -1.72917 -2.30838 -2.36894 -2.09466 -2.74779 -2.56196 -2.4337 -3.15104 -2.80612 -2.73892 -3.51293 -3.08936 -3.00483 -3.82935 -3.40132 -3.22747 -4.09723 -3.73388 -3.40397 -4.31427 -4.08154 -3.5323 -4.47873 -4.44158 -3.71535 -4.70116 -4.83807 -3.85278 -4.8662 -5.18101 -3.94497 -4.97673 -5.47309 -3.99225 -5.03497 -5.72023 -3.9946 -5.0422 -5.93165 -3.95152 -4.99854 -6.11989 -3.86181 -4.9027 -6.30105 -2.01631 -2.01631 -2.35859 -2.42408 -2.42408 -2.54893 -2.79989 -2.79989 -2.79115 -3.13746 -3.13746 -3.07308 -3.43199 -3.43199 -3.38431 -3.67992 -3.67992 -3.71667 -3.87865 -3.87865 -4.06467 -4.02626 -4.02626 -4.42565 -4.2334 -4.2334 -4.82477 -4.38751 -4.38751 -5.16935 -4.49038 -4.49038 -5.46219 -4.54338 -4.54338 -5.70948 -4.54725 -4.54725 -5.92076 -4.50182 -4.50182 -6.10899 -4.40585 -4.40585 -6.29077 -2.30838 -1.72917 -2.36894 -2.74779 -2.09466 -2.56196 -3.15104 -2.4337 -2.80612 -3.51293 -2.73892 -3.08936 -3.82935 -3.00483 -3.40132 -4.09723 -3.22747 -3.73388 -4.31427 -3.40397 -4.08154 -4.47873 -3.5323 -4.44158 -4.70116 -3.71535 -4.83807 -4.8662 -3.85278 -5.18101 -4.97673 -3.94497 -5.47309 -5.03497 -3.99225 -5.72023 -5.0422 -3.9946 -5.93165 -4.99854 -3.95152 -6.11989 -4.9027 -3.86181 -6.30105 -2.60566 -1.44723 -2.4 -3.06588 -1.75946 -2.60119 -3.48681 -2.05257 -2.85133 -3.86445 -2.31783 -3.13861 -4.19554 -2.54892 -3.45288 -4.47759 -2.74138 -3.78614 -4.70874 -2.89206 -4.13285 -4.88755 -2.99875 -4.49013 -5.11506 -3.15018 -4.8785 -5.28407 -3.26629 -5.21624 -5.39827 -3.34572 -5.50562 -5.46051 -3.38741 -5.7519 -5.47251 -3.39044 -5.96331 -5.43469 -3.35376 -6.15118 -5.34582 -3.27608 -6.33013 -2.90898 -1.17134 -2.45175 -3.37849 -1.41846 -2.6671 -3.80662 -1.65643 -2.92767 -4.19079 -1.87446 -3.2221 -4.52875 -2.06503 -3.54057 -4.81877 -2.22293 -3.87528 -5.05958 -2.34453 -4.22064 -5.25018 -2.42737 -4.57352 -5.471 -2.54089 -4.94758 -5.63563 -2.63214 -5.27556 -5.74834 -2.69762 -5.55913 -5.81239 -2.73459 -5.80252 -5.82991 -2.74089 -6.01247 -5.80162 -2.71465 -6.19838 -5.7266 -2.65425 -6.37255 -3.21991 -0.903059 -2.52421 -3.68579 -1.07167 -2.76045 -4.10957 -1.24498 -3.03659 -4.49022 -1.4088 -3.34184 -4.82664 -1.55369 -3.66688 -5.11801 -1.67321 -4.00414 -5.3638 -1.76294 -4.34807 -5.56365 -1.81984 -4.6952 -5.76411 -1.89043 -5.04748 -5.9144 -1.95448 -5.35943 -6.01902 -2.00588 -5.63204 -6.08146 -2.03986 -5.86829 -6.10416 -2.05264 -6.07309 -6.08827 -2.04121 -6.25339 -6.03342 -2.0032 -6.41844 -3.54105 -0.644984 -2.61737 -3.98803 -0.719162 -2.88232 -4.39433 -0.817642 -3.18004 -4.76036 -0.920557 -3.50049 -5.08616 -1.01522 -3.83498 -5.37187 -1.09322 -4.17634 -5.6178 -1.14879 -4.51909 -5.82439 -1.17795 -4.85946 -5.98861 -1.20195 -5.18052 -6.11262 -1.23783 -5.46759 -6.20074 -1.27634 -5.72108 -6.25647 -1.31026 -5.94268 -6.28242 -1.33386 -6.13534 -6.28021 -1.34256 -6.30333 -6.25036 -1.33272 -6.45236 -3.87658 -0.401304 -2.73123 -4.28553 -0.361057 -3.03408 -4.65893 -0.373539 -3.36038 -4.9979 -0.409091 -3.70113 -5.30326 -0.449729 -4.04848 -5.57596 -0.483863 -4.39585 -5.81713 -0.503656 -4.738 -6.0281 -0.503591 -5.07095 -6.13754 -0.478986 -5.34844 -6.22091 -0.487394 -5.59819 -6.28185 -0.515938 -5.82021 -6.32345 -0.554549 -6.01514 -6.34832 -0.595179 -6.18413 -6.35856 -0.631288 -6.32878 -6.35578 -0.6575 -6.45118 -4.2334 -0.178911 -2.8658 -4.57875 0.00241471 -3.21737 -4.90048 0.0887112 -3.5803 -5.19824 0.126676 -3.94703 -5.47257 0.142929 -4.31096 -5.72466 0.153959 -4.66647 -5.95628 0.17073 -5.00881 -6.16959 0.201024 -5.33402 -6.20244 0.27434 -5.5515 -6.22782 0.290534 -5.74653 -6.24789 0.266676 -5.91912 -6.26481 0.215981 -6.06925 -6.2808 0.149014 -6.19671 -6.29829 0.0745139 -6.30094 -6.31998 -2.08688e-14 -6.38079 -0.11243 -3.76096 -3.86602 0.0567939 -4.10751 -4.16578 0.125025 -4.43359 -4.44801 0.141537 -4.74097 -4.71403 0.134537 -5.03125 -4.965 0.121871 -5.30586 -5.20195 0.115796 -5.56615 -5.42578 0.125329 -5.81334 -5.6373 0.219091 -5.78077 -5.75759 0.258666 -5.71771 -5.94461 0.259242 -5.61537 -6.20254 0.230504 -5.46395 -6.53665 0.177619 -5.25232 -6.95347 0.10172 -4.96765 -7.46113 -1.37835e-14 -4.595 -8.0696 -0.303666 -3.43098 -3.72009 -0.273643 -3.84143 -4.01044 -0.300258 -4.21765 -4.28493 -0.353205 -4.56369 -4.54375 -0.413842 -4.88226 -4.78688 -0.46976 -5.17543 -5.01404 -0.512183 -5.44499 -5.22475 -0.534604 -5.69263 -5.41821 -0.484092 -5.73904 -5.56229 -0.462409 -5.7375 -5.78198 -0.456975 -5.68018 -6.08192 -0.459473 -5.55776 -6.46855 -0.465171 -5.35903 -6.95067 -0.472601 -5.07031 -7.54014 -0.483573 -4.67451 -8.25303 -0.515976 -3.12207 -3.59661 -0.599104 -3.57116 -3.87913 -0.708847 -3.97972 -4.14711 -0.826 -4.35147 -4.3999 -0.938022 -4.68885 -4.63649 -1.03624 -4.99373 -4.85555 -1.11446 -5.26783 -5.05536 -1.16813 -5.51296 -5.23382 -1.16132 -5.61643 -5.39429 -1.16081 -5.65899 -5.63609 -1.15613 -5.63356 -5.96388 -1.14004 -5.53146 -6.38469 -1.108 -5.34191 -6.90889 -1.05781 -5.05116 -7.55141 -0.989593 -4.64112 -8.3338 -0.742844 -2.82772 -3.49558 -0.919449 -3.29639 -3.77178 -1.10188 -3.72243 -4.0345 -1.27751 -4.10824 -4.28242 -1.43768 -4.45538 -4.51377 -1.57628 -4.76514 -4.72635 -1.68894 -5.03889 -4.91744 -1.77267 -5.27831 -5.08384 -1.80806 -5.42031 -5.25545 -1.82984 -5.49269 -5.51198 -1.82921 -5.48893 -5.85781 -1.7997 -5.40105 -6.30025 -1.73673 -5.21899 -6.85069 -1.63715 -4.92953 -7.52645 -1.49889 -4.5145 -8.35379 -0.980279 -2.54394 -3.417 -1.23461 -3.01692 -3.68834 -1.48008 -3.4476 -3.94701 -1.70805 -3.83688 -4.19121 -1.91233 -4.18522 -4.41858 -2.08852 -4.49319 -4.62622 -2.23361 -4.76166 -4.81067 -2.34576 -4.99208 -4.96785 -2.42022 -5.15682 -5.14684 -2.46372 -5.24721 -5.4129 -2.46871 -5.25716 -5.77007 -2.42924 -5.17937 -6.22568 -2.34048 -5.00466 -6.79178 -2.19814 -4.72072 -7.48749 -1.99771 -4.3101 -8.34278 -1.2258 -2.26824 -3.36087 -1.54455 -2.73257 -3.62877 -1.8439 -3.15654 -3.88458 -2.11766 -3.53955 -4.12616 -2.36129 -3.88103 -4.35073 -2.57158 -4.18078 -4.55492 -2.74648 -4.43917 -4.7347 -2.88504 -4.6573 -4.88539 -2.99398 -4.8312 -5.06902 -3.05723 -4.9298 -5.34094 -3.0681 -4.94728 -5.70485 -3.02094 -4.87695 -6.16803 -2.9105 -4.71057 -6.74293 -2.73119 -4.437 -7.44986 -2.47593 -4.04015 -8.32153 -1.47789 -1.99911 -3.3272 -1.84929 -2.44324 -3.59304 -2.19354 -2.85014 -3.84715 -2.50615 -3.21788 -4.08717 -2.78374 -3.54494 -4.31009 -3.02398 -3.83039 -4.51223 -3.22556 -4.07408 -4.68925 -3.38818 -4.27671 -4.83608 -3.52565 -4.44806 -5.02226 -3.60544 -4.54672 -5.29733 -3.62144 -4.56697 -5.66477 -3.56801 -4.50264 -6.13178 -3.43934 -4.34636 -6.71103 -3.22848 -4.08836 -7.42355 -2.92576 -3.71436 -8.30364 -1.73575 -1.73575 -3.31597 -2.14883 -2.14883 -3.58114 -2.52901 -2.52901 -3.83467 -2.87311 -2.87311 -4.07418 -3.17869 -3.17869 -4.29656 -3.44416 -3.44416 -4.49802 -3.66879 -3.66879 -4.67412 -3.85286 -3.85286 -4.81967 -4.01158 -4.01158 -5.00666 -4.10356 -4.10356 -5.28272 -4.12298 -4.12298 -5.65126 -4.06405 -4.06405 -6.11943 -3.92021 -3.92021 -6.69999 -3.68312 -3.68312 -7.41417 -3.34066 -3.34066 -8.29685 -1.99911 -1.47789 -3.3272 -2.44324 -1.84929 -3.59304 -2.85014 -2.19354 -3.84715 -3.21788 -2.50615 -4.08717 -3.54494 -2.78374 -4.31009 -3.83039 -3.02398 -4.51223 -4.07408 -3.22556 -4.68925 -4.27671 -3.38818 -4.83608 -4.44806 -3.52565 -5.02226 -4.54672 -3.60544 -5.29733 -4.56697 -3.62144 -5.66477 -4.50264 -3.56801 -6.13178 -4.34636 -3.43934 -6.71103 -4.08836 -3.22848 -7.42355 -3.71436 -2.92576 -8.30364 -2.26824 -1.2258 -3.36087 -2.73257 -1.54455 -3.62877 -3.15654 -1.8439 -3.88458 -3.53955 -2.11766 -4.12616 -3.88103 -2.36129 -4.35073 -4.18078 -2.57158 -4.55492 -4.43917 -2.74648 -4.7347 -4.6573 -2.88504 -4.88539 -4.8312 -2.99398 -5.06902 -4.9298 -3.05723 -5.34094 -4.94728 -3.0681 -5.70485 -4.87695 -3.02094 -6.16803 -4.71057 -2.9105 -6.74293 -4.437 -2.73119 -7.44986 -4.04015 -2.47593 -8.32153 -2.54394 -0.980279 -3.417 -3.01692 -1.23461 -3.68834 -3.4476 -1.48008 -3.94701 -3.83688 -1.70805 -4.19121 -4.18522 -1.91233 -4.41858 -4.49319 -2.08852 -4.62622 -4.76166 -2.23361 -4.81067 -4.99208 -2.34576 -4.96785 -5.15682 -2.42022 -5.14684 -5.24721 -2.46372 -5.4129 -5.25716 -2.46871 -5.77007 -5.17937 -2.42924 -6.22568 -5.00466 -2.34048 -6.79178 -4.72072 -2.19814 -7.48749 -4.3101 -1.99771 -8.34278 -2.82772 -0.742844 -3.49558 -3.29639 -0.919449 -3.77178 -3.72243 -1.10188 -4.0345 -4.10824 -1.27751 -4.28242 -4.45538 -1.43768 -4.51377 -4.76514 -1.57628 -4.72635 -5.03889 -1.68894 -4.91744 -5.27831 -1.77267 -5.08384 -5.42031 -1.80806 -5.25545 -5.49269 -1.82984 -5.51198 -5.48893 -1.82921 -5.85781 -5.40105 -1.7997 -6.30025 -5.21899 -1.73673 -6.85069 -4.92953 -1.63715 -7.52645 -4.5145 -1.49889 -8.35379 -3.12207 -0.515976 -3.59661 -3.57116 -0.599104 -3.87913 -3.97972 -0.708847 -4.14711 -4.35147 -0.826 -4.3999 -4.68885 -0.938022 -4.63649 -4.99373 -1.03624 -4.85555 -5.26783 -1.11446 -5.05536 -5.51296 -1.16813 -5.23382 -5.61643 -1.16132 -5.39429 -5.65899 -1.16081 -5.63609 -5.63356 -1.15613 -5.96388 -5.53146 -1.14004 -6.38469 -5.34191 -1.108 -6.90889 -5.05116 -1.05781 -7.55141 -4.64112 -0.989593 -8.3338 -3.43098 -0.303666 -3.72009 -3.84143 -0.273643 -4.01044 -4.21765 -0.300258 -4.28493 -4.56369 -0.353205 -4.54375 -4.88226 -0.413842 -4.78688 -5.17543 -0.46976 -5.01404 -5.44499 -0.512183 -5.22475 -5.69263 -0.534604 -5.41821 -5.73904 -0.484092 -5.56229 -5.7375 -0.462409 -5.78198 -5.68018 -0.456975 -6.08192 -5.55776 -0.459473 -6.46855 -5.35903 -0.465171 -6.95067 -5.07031 -0.472601 -7.54014 -4.67451 -0.483573 -8.25303 -3.76096 -0.11243 -3.86602 -4.10751 0.0567939 -4.16578 -4.43359 0.125025 -4.44801 -4.74097 0.141537 -4.71403 -5.03125 0.134537 -4.965 -5.30586 0.121871 -5.20195 -5.56615 0.115796 -5.42578 -5.81334 0.125329 -5.6373 -5.78077 0.219091 -5.75759 -5.71771 0.258666 -5.94461 -5.61537 0.259242 -6.20254 -5.46395 0.230504 -6.53665 -5.25232 0.177619 -6.95347 -4.96765 0.10172 -7.46113 -4.595 -1.28522e-14 -8.0696 -0.0956986 -3.38519 -4.67218 0.0764713 -3.72554 -4.90102 0.138635 -4.0486 -5.11737 0.145026 -4.35577 -5.32198 0.126069 -4.64834 -5.51555 0.100782 -4.92753 -5.69866 0.082148 -5.19446 -5.87187 0.0797079 -5.45018 -6.03564 0.187681 -5.36269 -6.06908 0.237649 -5.25564 -6.14943 0.245169 -5.12265 -6.27864 0.220581 -4.95674 -6.45919 0.17015 -4.75032 -6.69412 0.0967136 -4.49493 -6.98714 -2.35621e-14 -4.18111 -7.34272 -0.253486 -3.07305 -4.5516 -0.221562 -3.47844 -4.77295 -0.253204 -3.85226 -4.98382 -0.314631 -4.19837 -5.18394 -0.385453 -4.51925 -5.37288 -0.45225 -4.81666 -5.54999 -0.505588 -5.09213 -5.71445 -0.538485 -5.34713 -5.86518 -0.46592 -5.33218 -5.92392 -0.427956 -5.2808 -6.03599 -0.411871 -5.18766 -6.20351 -0.409015 -5.04645 -6.4295 -0.414009 -4.84979 -6.71819 -0.424298 -4.58885 -7.07536 -0.439968 -4.25299 -7.50882 -0.434088 -2.78372 -4.44957 -0.515832 -3.22858 -4.66471 -0.629659 -3.63528 -4.87098 -0.753874 -4.00744 -5.06732 -0.874539 -4.34719 -5.25238 -0.982112 -4.6561 -5.42448 -1.06978 -4.93556 -5.58164 -1.13259 -5.18711 -5.72151 -1.09618 -5.22545 -5.79829 -1.07339 -5.21479 -5.93235 -1.0539 -5.15058 -6.12558 -1.03051 -5.02723 -6.38117 -0.99854 -4.83786 -6.70412 -0.955455 -4.57386 -7.10183 -0.900689 -4.22417 -7.58511 -0.630676 -2.51038 -4.36609 -0.806065 -2.97543 -4.57624 -0.991724 -3.40011 -4.77878 -1.1732 -3.78667 -4.97207 -1.3407 -4.13634 -5.15402 -1.48733 -4.45002 -5.32212 -1.6082 -4.72875 -5.47342 -1.69989 -4.97389 -5.60452 -1.69857 -5.04912 -5.69402 -1.6922 -5.06682 -5.84307 -1.67245 -5.02302 -6.05317 -1.63332 -4.91277 -6.32746 -1.57063 -4.72987 -6.67138 -1.48169 -4.46628 -7.09356 -1.36496 -4.11112 -7.60735 -0.839042 -2.24882 -4.30117 -1.0921 -2.71866 -4.50748 -1.34004 -3.14847 -4.70717 -1.57281 -3.53886 -4.89813 -1.7833 -3.88995 -5.07771 -1.96643 -4.20186 -5.24276 -2.11868 -4.47511 -5.38959 -2.23781 -4.71079 -5.51398 -2.26897 -4.80879 -5.6122 -2.27874 -4.84461 -5.77118 -2.26037 -4.81457 -5.99201 -2.2088 -4.7143 -6.27765 -2.12021 -4.5383 -6.63377 -1.99157 -4.2793 -7.06989 -1.82017 -3.92706 -7.60136 -1.05656 -1.99641 -4.25479 -1.37385 -2.45801 -4.45839 -1.67497 -2.88157 -4.65607 -1.95266 -3.26611 -4.84539 -2.20158 -3.61063 -5.02332 -2.4179 -3.91447 -5.18624 -2.59911 -4.17759 -5.32993 -2.74386 -4.40075 -5.44958 -2.80352 -4.50935 -5.55346 -2.82787 -4.55473 -5.71866 -2.81138 -4.53334 -5.94594 -2.74968 -4.44119 -6.23807 -2.6391 -4.27345 -6.60082 -2.47617 -4.0237 -7.04429 -2.25686 -3.68268 -7.58526 -1.28163 -1.75156 -4.22696 -1.65129 -2.19331 -4.42895 -1.99669 -2.60028 -4.62543 -2.31249 -2.97003 -4.81378 -2.59461 -3.30051 -4.99074 -2.84017 -3.59031 -5.1524 -3.04738 -3.83887 -5.29422 -3.21561 -4.04651 -5.41107 -3.29851 -4.15518 -5.51811 -3.33477 -4.20302 -5.68672 -3.31973 -4.18636 -5.91741 -3.24946 -4.10144 -6.21281 -3.12029 -3.94398 -6.57872 -2.92814 -3.70841 -7.02559 -2.66764 -3.38666 -7.57105 -1.51339 -1.51339 -4.21769 -1.92443 -1.92443 -4.41914 -2.30519 -2.30519 -4.61522 -2.65184 -2.65184 -4.80325 -2.96134 -2.96134 -4.97989 -3.23157 -3.23157 -5.14113 -3.46137 -3.46137 -5.28234 -3.65063 -3.65063 -5.39825 -3.7503 -3.7503 -5.50631 -3.79472 -3.79472 -5.67601 -3.77989 -3.77989 -5.90775 -3.70207 -3.70207 -6.20414 -3.55736 -3.55736 -6.57098 -3.341 -3.341 -7.01881 -3.04622 -3.04622 -7.56557 -1.75156 -1.28163 -4.22696 -2.19331 -1.65129 -4.42895 -2.60028 -1.99669 -4.62543 -2.97003 -2.31249 -4.81378 -3.30051 -2.59461 -4.99074 -3.59031 -2.84017 -5.1524 -3.83887 -3.04738 -5.29422 -4.04651 -3.21561 -5.41107 -4.15518 -3.29851 -5.51811 -4.20302 -3.33477 -5.68672 -4.18636 -3.31973 -5.91741 -4.10144 -3.24946 -6.21281 -3.94398 -3.12029 -6.57872 -3.70841 -2.92814 -7.02559 -3.38666 -2.66764 -7.57105 -1.99641 -1.05656 -4.25479 -2.45801 -1.37385 -4.45839 -2.88157 -1.67497 -4.65607 -3.26611 -1.95266 -4.84539 -3.61063 -2.20158 -5.02332 -3.91447 -2.4179 -5.18624 -4.17759 -2.59911 -5.32993 -4.40075 -2.74386 -5.44958 -4.50935 -2.80352 -5.55346 -4.55473 -2.82787 -5.71866 -4.53334 -2.81138 -5.94594 -4.44119 -2.74968 -6.23807 -4.27345 -2.6391 -6.60082 -4.0237 -2.47617 -7.04429 -3.68268 -2.25686 -7.58526 -2.24882 -0.839042 -4.30117 -2.71866 -1.0921 -4.50748 -3.14847 -1.34004 -4.70717 -3.53886 -1.57281 -4.89813 -3.88995 -1.7833 -5.07771 -4.20186 -1.96643 -5.24276 -4.47511 -2.11868 -5.38959 -4.71079 -2.23781 -5.51398 -4.80879 -2.26897 -5.6122 -4.84461 -2.27874 -5.77118 -4.81457 -2.26037 -5.99201 -4.7143 -2.2088 -6.27765 -4.5383 -2.12021 -6.63377 -4.2793 -1.99157 -7.06989 -3.92706 -1.82017 -7.60136 -2.51038 -0.630676 -4.36609 -2.97543 -0.806065 -4.57624 -3.40011 -0.991724 -4.77878 -3.78667 -1.1732 -4.97207 -4.13634 -1.3407 -5.15402 -4.45002 -1.48733 -5.32212 -4.72875 -1.6082 -5.47342 -4.97389 -1.69989 -5.60452 -5.04912 -1.69857 -5.69402 -5.06682 -1.6922 -5.84307 -5.02302 -1.67245 -6.05317 -4.91277 -1.63332 -6.32746 -4.72987 -1.57063 -6.67138 -4.46628 -1.48169 -7.09356 -4.11112 -1.36496 -7.60735 -2.78372 -0.434088 -4.44957 -3.22858 -0.515832 -4.66471 -3.63528 -0.629659 -4.87098 -4.00744 -0.753874 -5.06732 -4.34719 -0.874539 -5.25238 -4.6561 -0.982112 -5.42448 -4.93556 -1.06978 -5.58164 -5.18711 -1.13259 -5.72151 -5.22545 -1.09618 -5.79829 -5.21479 -1.07339 -5.93235 -5.15058 -1.0539 -6.12558 -5.02723 -1.03051 -6.38117 -4.83786 -0.99854 -6.70412 -4.57386 -0.955455 -7.10183 -4.22417 -0.900689 -7.58511 -3.07305 -0.253486 -4.5516 -3.47844 -0.221562 -4.77295 -3.85226 -0.253204 -4.98382 -4.19837 -0.314631 -5.18394 -4.51925 -0.385453 -5.37288 -4.81666 -0.45225 -5.54999 -5.09213 -0.505588 -5.71445 -5.34713 -0.538485 -5.86518 -5.33218 -0.46592 -5.92392 -5.2808 -0.427956 -6.03599 -5.18766 -0.411871 -6.20351 -5.04645 -0.409015 -6.4295 -4.84979 -0.414009 -6.71819 -4.58885 -0.424298 -7.07536 -4.25299 -0.439968 -7.50882 -3.38519 -0.0956986 -4.67218 -3.72554 0.0764713 -4.90102 -4.0486 0.138635 -5.11737 -4.35