<?xml version="1.0"?> 
<VTKFile type="StructuredGrid" version="0.1"> 
<StructuredGrid WholeExtent="0 14 0 14 0 29"> 
<Piece Extent="0 14 0 14 0 29"> 
<PointData>
<DataArray type="Float32" Name="efield" format="ascii" NumberOfComponents="3"> 
-7.97575 -0.923418 7.59576 -8.28413 -0.625611 8.06004 -8.59251 -0.357577 8.23757 -8.90089 -0.106669 8.13147 -9.20927 0.135338 7.73822 -9.51765 0.374024 7.04725 -9.82603 0.613308 6.03991 -10.1344 0.856023 4.68799 -12.3907 0.483571 3.89111 -14.647 0.188196 3.98004 -16.9033 -0.0254461 5.11682 -19.1596 -0.153711 7.52382 -21.4159 -0.193705 11.5106 -23.6722 -0.143099 17.5173 -25.9284 -7.20507e-15 26.1876 -7.42028 -1.37543 7.61521 -7.72692 -1.21203 8.18168 -8.02887 -1.0579 8.43611 -8.32684 -0.907372 8.38432 -8.62135 -0.756573 8.02452 -8.91276 -0.602783 7.34682 -9.20131 -0.444045 6.33214 -9.48721 -0.278926 4.9505 -11.7777 -0.894174 4.11369 -14.0525 -1.41724 4.13694 -16.3119 -1.84645 5.17711 -18.5562 -2.18065 7.45309 -20.7855 -2.41907 11.2753 -23.0002 -2.56124 17.0948 -25.2003 -2.60695 25.588 -6.92515 -1.88778 7.63167 -7.21645 -1.8181 8.28421 -7.5011 -1.74778 8.60292 -7.77984 -1.67417 8.59624 -8.05316 -1.59544 8.26413 -8.32145 -1.5103 7.59757 -8.58499 -1.41782 6.57742 -8.844 -1.31734 5.17245 -11.1153 -2.16082 4.29959 -13.3569 -2.90478 4.26216 -15.5693 -3.54935 5.21093 -17.7526 -4.09498 7.35955 -19.9073 -4.54229 11.016 -22.0335 -4.89212 16.6364 -24.1314 -5.14537 24.9205 -6.45456 -2.42466 7.64514 -6.72475 -2.42445 8.36781 -6.98723 -2.41856 8.73855 -7.24256 -2.40578 8.76815 -7.49115 -2.38531 8.4582 -7.73333 -2.35657 7.80063 -7.96935 -2.3192 6.77644 -8.1994 -2.27297 5.35358 -10.4132 -3.32892 4.45028 -12.5844 -4.28312 4.36069 -14.7134 -5.13678 5.22961 -16.8006 -5.89128 7.26489 -18.8464 -6.54809 10.7705 -20.8512 -7.1088 16.2037 -22.8152 -7.57504 24.2801 -5.98945 -2.96702 7.65561 -6.23591 -3.02074 8.43266 -6.47387 -3.06621 8.84348 -6.70376 -3.10294 8.90088 -6.92589 -3.13063 8.60785 -7.14055 -3.14912 7.95715 -7.34793 -3.15832 6.93005 -7.54823 -3.15823 5.494 -9.67622 -4.41095 4.56667 -11.7496 -5.5632 4.43541 -13.769 -6.6167 5.23975 -15.7349 -7.57326 7.18218 -17.6479 -8.43477 10.5622 -19.5085 -9.20315 15.8363 -21.3172 -9.88039 23.7305 -5.51911 -3.50416 7.66309 -5.74031 -3.60144 8.47888 -5.95237 -3.68925 8.91813 -6.1556 -3.76745 8.99515 -6.35028 -3.83601 8.71401 -6.53662 -3.89495 8.06816 -6.71483 -3.94435 7.03909 -6.88507 -3.98433 5.59399 -8.90561 -5.41883 4.64941 -10.8606 -6.75659 4.48793 -12.7509 -7.99948 5.24508 -14.5772 -9.1494 7.11905 -16.3405 -10.2083 10.4055 -18.0414 -11.1781 15.5595 -19.6807 -12.0609 23.3131 -5.03748 -4.03 7.66758 -5.23196 -4.16386 8.50657 -5.41678 -4.28777 8.9628 -5.59221 -4.40179 9.05149 -5.75846 -4.50603 8.77741 -5.91572 -4.60061 8.13443 -6.06419 -4.68569 7.10422 -6.20404 -4.76142 5.65383 -8.09971 -6.36345 4.69889 -9.92003 -7.87437 4.51915 -11.6661 -9.29592 5.24764 -13.3391 -10.6299 7.07978 -14.9402 -11.878 10.3087 -16.4703 -13.042 15.3882 -17.9307 -14.1238 23.0534 -4.54143 -4.54143 7.66907 -4.70715 -4.70715 8.51579 -4.86292 -4.86292 8.97767 -5.00891 -5.00891 9.07023 -5.1453 -5.1453 8.79849 -5.27226 -5.27226 8.15646 -5.38997 -5.38997 7.12588 -5.49859 -5.49859 5.67375 -7.2544 -7.2544 4.71535 -8.92628 -8.92628 4.52952 -10.5157 -10.5157 5.24839 -12.0242 -12.0242 7.06648 -13.4531 -13.4531 10.276 -14.804 -14.804 15.3303 -16.0783 -16.0783 22.9654 -4.03 -5.03748 7.66758 -4.16386 -5.23196 8.50657 -4.28777 -5.41678 8.9628 -4.40179 -5.59221 9.05149 -4.50603 -5.75846 8.77741 -4.60061 -5.91572 8.13443 -4.68569 -6.06419 7.10422 -4.76142 -6.20404 5.65383 -6.36345 -8.09971 4.69889 -7.87437 -9.92003 4.51915 -9.29592 -11.6661 5.24764 -10.6299 -13.3391 7.07978 -11.878 -14.9402 10.3087 -13.042 -16.4703 15.3882 -14.1238 -17.9307 23.0534 -3.50416 -5.51911 7.66309 -3.60144 -5.74031 8.47888 -3.68925 -5.95237 8.91813 -3.76745 -6.1556 8.99515 -3.83601 -6.35028 8.71401 -3.89495 -6.53662 8.06816 -3.94435 -6.71483 7.03909 -3.98433 -6.88507 5.59399 -5.41883 -8.90561 4.64941 -6.75659 -10.8606 4.48793 -7.99948 -12.7509 5.24508 -9.1494 -14.5772 7.11905 -10.2083 -16.3405 10.4055 -11.1781 -18.0414 15.5595 -12.0609 -19.6807 23.3131 -2.96702 -5.98945 7.65561 -3.02074 -6.23591 8.43266 -3.06621 -6.47387 8.84348 -3.10294 -6.70376 8.90088 -3.13063 -6.92589 8.60785 -3.14912 -7.14055 7.95715 -3.15832 -7.34793 6.93005 -3.15823 -7.54823 5.494 -4.41095 -9.67622 4.56667 -5.5632 -11.7496 4.43541 -6.6167 -13.769 5.23975 -7.57326 -15.7349 7.18218 -8.43477 -17.6479 10.5622 -9.20315 -19.5085 15.8363 -9.88039 -21.3172 23.7305 -2.42466 -6.45456 7.64514 -2.42445 -6.72475 8.36781 -2.41856 -6.98723 8.73855 -2.40578 -7.24256 8.76815 -2.38531 -7.49115 8.4582 -2.35657 -7.73333 7.80063 -2.3192 -7.96935 6.77644 -2.27297 -8.1994 5.35358 -3.32892 -10.4132 4.45028 -4.28312 -12.5844 4.36069 -5.13678 -14.7134 5.22961 -5.89128 -16.8006 7.26489 -6.54809 -18.8464 10.7705 -7.1088 -20.8512 16.2037 -7.57504 -22.8152 24.2801 -1.88778 -6.92515 7.63167 -1.8181 -7.21645 8.28421 -1.74778 -7.5011 8.60292 -1.67417 -7.77984 8.59624 -1.59544 -8.05316 8.26413 -1.5103 -8.32145 7.59757 -1.41782 -8.58499 6.57742 -1.31734 -8.844 5.17245 -2.16082 -11.1153 4.29959 -2.90478 -13.3569 4.26216 -3.54935 -15.5693 5.21093 -4.09498 -17.7526 7.35955 -4.54229 -19.9073 11.016 -4.89212 -22.0335 16.6364 -5.14537 -24.1314 24.9205 -1.37543 -7.42028 7.61521 -1.21203 -7.72692 8.18168 -1.0579 -8.02887 8.43611 -0.907372 -8.32684 8.38432 -0.756573 -8.62135 8.02452 -0.602783 -8.91276 7.34682 -0.444045 -9.20131 6.33214 -0.278926 -9.48721 4.9505 -0.894174 -11.7777 4.11369 -1.41724 -14.0525 4.13694 -1.84645 -16.3119 5.17711 -2.18065 -18.5562 7.45309 -2.41907 -20.7855 11.2753 -2.56124 -23.0002 17.0948 -2.60695 -25.2003 25.588 -0.923418 -7.97575 7.59576 -0.625611 -8.28413 8.06004 -0.357577 -8.59251 8.23757 -0.106669 -8.90089 8.13147 0.135338 -9.20927 7.73822 0.374024 -9.51765 7.04725 0.613308 -9.82603 6.03991 0.856023 -10.1344 4.68799 0.483571 -12.3907 3.89111 0.188196 -14.647 3.98004 -0.0254461 -16.9033 5.11682 -0.153711 -19.1596 7.52382 -0.193705 -21.4159 11.5106 -0.143099 -23.6722 17.5173 -1.0772e-14 -25.9284 26.1876 -6.11198 0.367713 15.1041 -7.04764 0.231402 14.7657 -7.95959 0.129148 14.5274 -8.84311 0.0665278 14.3844 -9.6941 0.0470674 14.3333 -10.5089 0.0730506 14.372 -11.284 0.145955 14.5 -12.016 0.266693 14.7182 -12.3508 0.470878 14.8337 -12.6777 0.552451 14.9067 -13.0001 0.542244 14.9336 -13.3216 0.464381 14.91 -13.6464 0.338087 14.8299 -13.9789 0.178978 14.6859 -14.3247 -5.19943e-15 14.4679 -5.49891 0.0551061 15.2078 -6.4535 -0.26322 14.8815 -7.37692 -0.525992 14.6432 -8.26493 -0.733423 14.4879 -9.11392 -0.88578 14.4123 -9.92068 -0.983392 14.4148 -10.6822 -1.02665 14.4955 -11.3954 -1.01602 14.656 -11.9204 -0.960714 14.7905 -12.4072 -0.975398 14.885 -12.8617 -1.03906 14.938 -13.2895 -1.13508 14.9474 -13.6957 -1.25014 14.9108 -14.0852 -1.37346 14.825 -14.463 -1.49619 14.6855 -4.96284 -0.33449 15.2956 -5.9154 -0.787273 14.9847 -6.83162 -1.17544 14.7513 -7.70735 -1.50085 14.59 -8.5392 -1.76499 14.4976 -9.32426 -1.96916 14.4726 -10.0598 -2.11449 14.5154 -10.7432 -2.202 14.6284 -11.3915 -2.29267 14.7651 -11.9811 -2.41174 14.8603 -12.5192 -2.54559 14.9146 -13.0121 -2.68345 14.9284 -13.4652 -2.81665 14.9026 -13.883 -2.93826 14.8381 -14.2697 -3.04262 14.7363 -4.46786 -0.765182 15.3674 -5.40661 -1.32229 15.0725 -6.30427 -1.81169 14.8462 -7.15692 -2.23529 14.683 -7.96148 -2.59474 14.5795 -8.71541 -2.89147 14.5341 -9.41639 -3.12678 14.5476 -10.0621 -3.30179 14.6229 -10.7804 -3.53056 14.7533 -11.4272 -3.75503 14.8387 -12.0098 -3.96721 14.8812 -12.5345 -4.16079 14.8838 -13.0065 -4.33076 14.85 -13.43 -4.47308 14.7848 -13.8079 -4.58447 14.6945 -3.99403 -1.21702 15.4232 -4.9111 -1.85778 15.1426 -5.78232 -2.43085 14.9238 -6.60424 -2.93759 14.761 -7.37423 -3.37927 14.6504 -8.09019 -3.75711 14.5907 -8.75029 -4.07224 14.5826 -9.35264 -4.32561 14.6293 -10.0986 -4.68122 14.7504 -10.7659 -5.00704 14.8223 -11.3614 -5.29939 14.8485 -11.8912 -5.5554 14.8336 -12.36 -5.77282 14.7837 -12.7715 -5.94979 14.707 -13.1277 -6.08463 14.6139 -3.52978 -1.67844 15.4631 -4.41881 -2.38777 15.1937 -5.25729 -3.03125 14.9813 -6.04238 -3.60937 14.8196 -6.77203 -4.12286 14.7049 -7.44468 -4.5725 14.6357 -8.05899 -4.95904 14.6128 -8.61361 -5.28313 14.6396 -9.35288 -5.75182 14.752 -10.0109 -6.17124 14.8114 -10.5941 -6.54096 14.8222 -11.1078 -6.86074 14.7904 -11.5563 -7.13045 14.7241 -11.9424 -7.34978 14.6334 -12.2678 -7.51811 14.5321 -3.06841 -2.14274 15.487 -3.92338 -2.90917 15.2247 -4.72326 -3.61267 15.0165 -5.46598 -4.25285 14.856 -6.15012 -4.82974 14.7392 -6.77473 -5.34359 14.6645 -7.33902 -5.79469 14.633 -7.84217 -6.18324 14.6481 -8.54638 -6.74921 14.7544 -9.17111 -7.25149 14.8052 -9.72176 -7.69213 14.8054 -10.2028 -8.07293 14.7619 -10.6177 -8.3953 14.6837 -10.969 -8.6601 14.5825 -11.2575 -8.86739 14.4737 -2.60643 -2.60643 15.495 -3.42087 -3.42087 15.2351 -4.17604 -4.17604 15.0284 -4.87068 -4.87068 14.8683 -5.5041 -5.5041 14.7508 -6.07595 -6.07595 14.6744 -6.586 -6.586 14.64 -7.03395 -7.03395 14.6512 -7.67928 -7.67928 14.7555 -8.25095 -8.25095 14.8033 -8.75294 -8.75294 14.7997 -9.18855 -9.18855 14.752 -9.5604 -9.5604 14.6695 -9.87018 -9.87018 14.5644 -10.1185 -10.1185 14.4527 -2.14274 -3.06841 15.487 -2.90917 -3.92338 15.2247 -3.61267 -4.72326 15.0165 -4.25285 -5.46598 14.856 -4.82974 -6.15012 14.7392 -5.34359 -6.77473 14.6645 -5.79469 -7.33902 14.633 -6.18324 -7.84217 14.6481 -6.74921 -8.54638 14.7544 -7.25149 -9.17111 14.8052 -7.69213 -9.72176 14.8054 -8.07293 -10.2028 14.7619 -8.3953 -10.6177 14.6837 -8.6601 -10.969 14.5825 -8.86739 -11.2575 14.4737 -1.67844 -3.52978 15.4631 -2.38777 -4.41881 15.1937 -3.03125 -5.25729 14.9813 -3.60937 -6.04238 14.8196 -4.12286 -6.77203 14.7049 -4.5725 -7.44468 14.6357 -4.95904 -8.05899 14.6128 -5.28313 -8.61361 14.6396 -5.75182 -9.35288 14.752 -6.17124 -10.0109 14.8114 -6.54096 -10.5941 14.8222 -6.86074 -11.1078 14.7904 -7.13045 -11.5563 14.7241 -7.34978 -11.9424 14.6334 -7.51811 -12.2678 14.5321 -1.21702 -3.99403 15.4232 -1.85778 -4.9111 15.1426 -2.43085 -5.78232 14.9238 -2.93759 -6.60424 14.761 -3.37927 -7.37423 14.6504 -3.75711 -8.09019 14.5907 -4.07224 -8.75029 14.5826 -4.32561 -9.35264 14.6293 -4.68122 -10.0986 14.7504 -5.00704 -10.7659 14.8223 -5.29939 -11.3614 14.8485 -5.5554 -11.8912 14.8336 -5.77282 -12.36 14.7837 -5.94979 -12.7715 14.707 -6.08463 -13.1277 14.6139 -0.765182 -4.46786 15.3674 -1.32229 -5.40661 15.0725 -1.81169 -6.30427 14.8462 -2.23529 -7.15692 14.683 -2.59474 -7.96148 14.5795 -2.89147 -8.71541 14.5341 -3.12678 -9.41639 14.5476 -3.30179 -10.0621 14.6229 -3.53056 -10.7804 14.7533 -3.75503 -11.4272 14.8387 -3.96721 -12.0098 14.8812 -4.16079 -12.5345 14.8838 -4.33076 -13.0065 14.85 -4.47308 -13.43 14.7848 -4.58447 -13.8079 14.6945 -0.33449 -4.96284 15.2956 -0.787273 -5.9154 14.9847 -1.17544 -6.83162 14.7513 -1.50085 -7.70735 14.59 -1.76499 -8.5392 14.4976 -1.96916 -9.32426 14.4726 -2.11449 -10.0598 14.5154 -2.202 -10.7432 14.6284 -2.29267 -11.3915 14.7651 -2.41174 -11.9811 14.8603 -2.54559 -12.5192 14.9146 -2.68345 -13.0121 14.9284 -2.81665 -13.4652 14.9026 -2.93826 -13.883 14.8381 -3.04262 -14.2697 14.7363 0.0551061 -5.49891 15.2078 -0.26322 -6.4535 14.8815 -0.525992 -7.37692 14.6432 -0.733423 -8.26493 14.4879 -0.88578 -9.11392 14.4123 -0.983392 -9.92068 14.4148 -1.02665 -10.6822 14.4955 -1.01602 -11.3954 14.656 -0.960714 -11.9204 14.7905 -0.975398 -12.4072 14.885 -1.03906 -12.8617 14.938 -1.13508 -13.2895 14.9474 -1.25014 -13.6957 14.9108 -1.37346 -14.0852 14.825 -1.49619 -14.463 14.6855 0.367713 -6.11198 15.1041 0.231402 -7.04764 14.7657 0.129148 -7.95959 14.5274 0.0665278 -8.84311 14.3844 0.0470674 -9.6941 14.3333 0.0730506 -10.5089 14.372 0.145955 -11.284 14.5 0.266693 -12.016 14.7182 0.470878 -12.3508 14.8337 0.552451 -12.6777 14.9067 0.542244 -13.0001 14.9336 0.464381 -13.3216 14.91 0.338087 -13.6464 14.8299 0.178978 -13.9789 14.6859 -7.76495e-15 -14.3247 14.4679 -5.97117 -0.243093 21.1515 -6.47469 -0.0941188 20.9513 -6.99012 -0.0251954 20.7555 -7.51792 0.012817 20.5549 -8.05971 0.0504672 20.3401 -8.61841 0.10905 20.1011 -9.19827 0.204979 19.8276 -9.80502 0.352083 19.5083 -10.3728 0.471901 19.1077 -10.9778 0.459983 18.6634 -11.6289 0.368747 18.1608 -12.3375 0.241154 17.5823 -13.119 0.114374 16.9062 -13.994 0.0226645 16.1046 -14.9907 -1.61267e-15 15.1405 -5.53995 -0.630162 21.2726 -6.0841 -0.617387 21.0508 -6.62262 -0.64986 20.8362 -7.15681 -0.694984 20.6181 -7.68802 -0.731205 20.3857 -8.2182 -0.742994 20.1288 -8.7501 -0.718314 19.8377 -9.28732 -0.64723 19.5029 -10.0224 -0.702877 19.205 -10.7516 -0.839446 18.8209 -11.4883 -1.01696 18.3369 -12.2469 -1.20239 17.7381 -13.0435 -1.36728 17.0071 -13.8971 -1.48601 16.123 -14.8308 -1.53423 15.059 -5.1196 -1.02812 21.3751 -5.68421 -1.13024 21.1418 -6.23277 -1.2539 20.9184 -6.76547 -1.3764 20.6926 -7.2825 -1.48204 20.453 -7.78447 -1.55922 20.1894 -8.27263 -1.59902 19.8928 -8.74881 -1.59423 19.5554 -9.59577 -1.81622 19.3311 -10.4039 -2.07597 18.9793 -11.189 -2.34449 18.488 -11.9665 -2.59785 17.8457 -12.7523 -2.81562 17.0406 -13.5633 -2.97985 16.0602 -14.4177 -3.07419 14.8892 -4.70543 -1.43224 21.4589 -5.27471 -1.6326 21.221 -5.82192 -1.83801 20.9952 -6.34549 -2.0318 20.7684 -6.84409 -2.20198 20.5285 -7.31699 -2.33964 20.2655 -7.76409 -2.43793 19.9708 -8.18576 -2.49149 19.6384 -9.09815 -2.86789 19.4665 -9.94783 -3.24569 19.1295 -10.7512 -3.60558 18.6174 -11.5237 -3.9317 17.9224 -12.2805 -4.21074 17.0389 -13.0358 -4.43124 15.9627 -13.8038 -4.58312 14.6902 -4.29456 -1.83967 21.5241 -4.85537 -2.12441 21.2855 -5.39098 -2.40265 21.0611 -5.89793 -2.66138 20.8369 -6.37346 -2.89101 20.6004 -6.8156 -3.08434 20.3416 -7.22311 -3.23593 20.0526 -7.59525 -3.34159 19.7286 -8.53367 -3.85812 19.5931 -9.39369 -4.34606 19.2609 -10.191 -4.79445 18.7237 -10.9403 -5.19452 17.9776 -11.655 -5.53909 17.0224 -12.3471 -5.82203 15.8617 -13.0271 -6.03798 14.5019 -3.88522 -2.24863 21.5707 -4.42602 -2.60566 21.3333 -4.94049 -2.94811 21.1116 -5.42354 -3.26527 20.891 -5.8711 -3.54909 20.659 -6.28016 -3.79352 20.4053 -6.64858 -3.99402 20.1226 -6.9748 -4.14713 19.807 -7.9055 -4.78749 19.6955 -8.74968 -5.37537 19.3634 -9.52123 -5.90693 18.8037 -10.233 -6.37954 18.0158 -10.8964 -6.7912 17.0038 -11.5212 -7.14009 15.7773 -12.1149 -7.42435 14.3508 -3.47634 -2.65805 21.5986 -3.98648 -3.07639 21.3625 -4.47082 -3.47458 21.1432 -4.9228 -3.84351 20.9257 -5.33731 -4.1762 20.6971 -5.71047 -4.46742 20.4473 -6.03946 -4.71324 20.1694 -6.32211 -4.9107 19.8598 -7.21586 -5.65664 19.762 -8.02199 -6.33223 19.4285 -8.75152 -6.93964 18.8536 -9.41467 -7.4814 18.0384 -10.0204 -7.95985 16.9901 -10.576 -8.37673 15.7222 -11.0866 -8.73281 14.254 -3.06735 -3.06735 21.6079 -3.53664 -3.53664 21.3724 -3.98215 -3.98215 21.1539 -4.39606 -4.39606 20.9376 -4.7723 -4.7723 20.7103 -5.10631 -5.10631 20.462 -5.3947 -5.3947 20.1857 -5.63487 -5.63487 19.8783 -6.46607 -6.46607 19.7849 -7.21514 -7.21514 19.4508 -7.88919 -7.88919 18.8706 -8.49502 -8.49502 18.046 -9.03861 -9.03861 16.9852 -9.52462 -9.52462 15.7031 -9.95606 -9.95606 14.2207 -2.65805 -3.47634 21.5986 -3.07639 -3.98648 21.3625 -3.47458 -4.47082 21.1432 -3.84351 -4.9228 20.9257 -4.1762 -5.33731 20.6971 -4.46742 -5.71047 20.4473 -4.71324 -6.03946 20.1694 -4.9107 -6.32211 19.8598 -5.65664 -7.21586 19.762 -6.33223 -8.02199 19.4285 -6.93964 -8.75152 18.8536 -7.4814 -9.41467 18.0384 -7.95985 -10.0204 16.9901 -8.37673 -10.576 15.7222 -8.73281 -11.0866 14.254 -2.24863 -3.88522 21.5707 -2.60566 -4.42602 21.3333 -2.94811 -4.94049 21.1116 -3.26527 -5.42354 20.891 -3.54909 -5.8711 20.659 -3.79352 -6.28016 20.4053 -3.99402 -6.64858 20.1226 -4.14713 -6.9748 19.807 -4.78749 -7.9055 19.6955 -5.37537 -8.74968 19.3634 -5.90693 -9.52123 18.8037 -6.37954 -10.233 18.0158 -6.7912 -10.8964 17.0038 -7.14009 -11.5212 15.7773 -7.42435 -12.1149 14.3508 -1.83967 -4.29456 21.5241 -2.12441 -4.85537 21.2855 -2.40265 -5.39098 21.0611 -2.66138 -5.89793 20.8369 -2.89101 -6.37346 20.6004 -3.08434 -6.8156 20.3416 -3.23593 -7.22311 20.0526 -3.34159 -7.59525 19.7286 -3.85812 -8.53367 19.5931 -4.34606 -9.39369 19.2609 -4.79445 -10.191 18.7237 -5.19452 -10.9403 17.9776 -5.53909 -11.655 17.0224 -5.82203 -12.3471 15.8617 -6.03798 -13.0271 14.5019 -1.43224 -4.70543 21.4589 -1.6326 -5.27471 21.221 -1.83801 -5.82192 20.9952 -2.0318 -6.34549 20.7684 -2.20198 -6.84409 20.5285 -2.33964 -7.31699 20.2655 -2.43793 -7.76409 19.9708 -2.49149 -8.18576 19.6384 -2.86789 -9.09815 19.4665 -3.24569 -9.94783 19.1295 -3.60558 -10.7512 18.6174 -3.9317 -11.5237 17.9224 -4.21074 -12.2805 17.0389 -4.43124 -13.0358 15.9627 -4.58312 -13.8038 14.6902 -1.02812 -5.1196 21.3751 -1.13024 -5.68421 21.1418 -1.2539 -6.23277 20.9184 -1.3764 -6.76547 20.6926 -1.48204 -7.2825 20.453 -1.55922 -7.78447 20.1894 -1.59902 -8.27263 19.8928 -1.59423 -8.74881 19.5554 -1.81622 -9.59577 19.3311 -2.07597 -10.4039 18.9793 -2.34449 -11.189 18.488 -2.59785 -11.9665 17.8457 -2.81562 -12.7523 17.0406 -2.97985 -13.5633 16.0602 -3.07419 -14.4177 14.8892 -0.630162 -5.53995 21.2726 -0.617387 -6.0841 21.0508 -0.64986 -6.62262 20.8362 -0.694984 -7.15681 20.6181 -0.731205 -7.68802 20.3857 -0.742994 -8.2182 20.1288 -0.718314 -8.7501 19.8377 -0.64723 -9.28732 19.5029 -0.702877 -10.0224 19.205 -0.839446 -10.7516 18.8209 -1.01696 -11.4883 18.3369 -1.20239 -12.2469 17.7381 -1.36728 -13.0435 17.0071 -1.48601 -13.8971 16.123 -1.53423 -14.8308 15.059 -0.243093 -5.97117 21.1515 -0.0941188 -6.47469 20.9513 -0.0251954 -6.99012 20.7555 0.012817 -7.51792 20.5549 0.0504672 -8.05971 20.3401 0.10905 -8.61841 20.1011 0.204979 -9.19827 19.8276 0.352083 -9.80502 19.5083 0.471901 -10.3728 19.1077 0.459983 -10.9778 18.6634 0.368747 -11.6289 18.1608 0.241154 -12.3375 17.5823 0.114374 -13.119 16.9062 0.0226645 -13.994 16.1046 -4.7748e-15 -14.9907 15.1405 -5.41361 -0.143574 22.5633 -5.94627 0.0229573 22.4561 -6.49251 0.0788707 22.2677 -7.06126 0.0827317 21.9964 -7.66186 0.0709653 21.6397 -8.30412 0.0695842 21.1943 -8.99861 0.0995172 20.6556 -9.75681 0.179353 20.0181 -10.1728 0.35878 19.2677 -10.5709 0.407212 18.7391 -10.9245 0.375908 18.4401 -11.2044 0.301012 18.3813 -11.3786 0.206417 18.5769 -11.4108 0.105199 19.0458 -11.2595 4.58614e-15 19.8115 -4.97527 -0.458094 22.6118 -5.56522 -0.452063 22.5651 -6.14451 -0.508292 22.4209 -6.72464 -0.591789 22.1759 -7.31629 -0.679195 21.8256 -7.93026 -0.753117 21.3636 -8.57807 -0.799346 20.7818 -9.27249 -0.805328 20.0698 -9.86453 -0.791419 19.3492 -10.3958 -0.852573 18.8483 -10.845 -0.946352 18.5722 -11.1884 -1.04192 18.5294 -11.3988 -1.11796 18.7332 -11.4445 -1.16152 19.2032 -11.2877 -1.1677 19.967 -4.55743 -0.793122 22.6529 -5.17926 -0.920473 22.6577 -5.77635 -1.07712 22.5514 -6.35964 -1.24233 22.3295 -6.93943 -1.40157 21.9856 -7.5263 -1.54382 21.5115 -8.13185 -1.66026 20.8961 -8.76931 -1.74342 20.1255 -9.48156 -1.88755 19.4235 -10.1005 -2.05791 18.9361 -10.6087 -2.21964 18.665 -10.9867 -2.34676 18.6161 -11.2119 -2.42064 18.8005 -11.2578 -2.4289 19.2368 -11.0914 -2.36493 19.9544 -4.15323 -1.14178 22.6865 -4.78729 -1.3816 22.7337 -5.38874 -1.62789 22.6587 -5.96675 -1.86862 22.4561 -6.5304 -2.09525 22.1185 -7.08939 -2.30153 21.6356 -7.65479 -2.4829 20.9946 -8.23963 -2.63618 20.1786 -9.02508 -2.92792 19.4879 -9.69423 -3.20353 19.0053 -10.2324 -3.43443 18.7297 -10.6233 -3.59898 18.6637 -10.8486 -3.6811 18.816 -10.8865 -3.66926 19.2033 -10.7092 -3.55565 19.8547 -3.75843 -1.49985 22.7126 -4.38856 -1.83505 22.7929 -4.9822 -2.16073 22.7425 -5.54643 -2.47034 22.5553 -6.08875 -2.75943 22.223 -6.61768 -3.0253 21.7341 -7.14332 -3.26683 21.0741 -7.678 -3.48443 20.2244 -8.49658 -3.91078 19.5402 -9.18491 -4.28478 19.0579 -9.72979 -4.58301 18.7736 -10.1175 -4.78743 18.6875 -10.3329 -4.88424 18.8055 -10.3584 -4.86279 19.1423 -10.1714 -4.71438 19.7259 -3.37043 -1.86471 22.7313 -3.98257 -2.28058 22.8353 -4.55711 -2.67575 22.8026 -5.09909 -3.04718 22.6266 -5.61436 -3.39335 22.2982 -6.11004 -3.71429 21.8054 -6.59502 -4.01163 21.1325 -7.08055 -4.28877 20.2595 -7.89769 -4.8343 19.5787 -8.57912 -5.29741 19.0949 -9.11219 -5.65875 18.802 -9.48463 -5.90314 18.698 -9.68386 -6.01854 18.7868 -9.6956 -5.99495 19.0812 -9.50154 -5.82284 19.608 -2.98763 -2.23476 22.7425 -3.56897 -2.71807 22.8608 -4.11375 -3.17296 22.8387 -4.62513 -3.59881 22.6694 -5.1073 -3.99635 22.3436 -5.56589 -4.36774 21.8486 -6.00837 -4.7169 21.1681 -6.44453 -5.04975 20.2814 -7.23018 -5.69662 19.6023 -7.88263 -6.23735 19.1169 -8.38888 -6.65564 18.8178 -8.73726 -6.93833 18.7017 -8.91668 -7.07453 18.7713 -8.91527 -7.05437 19.0379 -8.71818 -6.86722 19.5273 -2.60916 -2.60916 22.7462 -3.14752 -3.14752 22.8693 -3.65232 -3.65232 22.8507 -4.12491 -4.12491 22.6838 -4.56783 -4.56783 22.3588 -4.98508 -4.98508 21.863 -5.38247 -5.38247 21.1801 -5.76803 -5.76803 20.2889 -6.49587 -6.49587 19.6103 -7.10051 -7.10051 19.1242 -7.56774 -7.56774 18.8229 -7.8856 -7.8856 18.7026 -8.04354 -8.04354 18.7654 -8.03112 -8.03112 19.0224 -7.83601 -7.83601 19.4988 -2.23476 -2.98763 22.7425 -2.71807 -3.56897 22.8608 -3.17296 -4.11375 22.8387 -3.59881 -4.62513 22.6694 -3.99635 -5.1073 22.3436 -4.36774 -5.56589 21.8486 -4.7169 -6.00837 21.1681 -5.04975 -6.44453 20.2814 -5.69662 -7.23018 19.6023 -6.23735 -7.88263 19.1169 -6.65564 -8.38888 18.8178 -6.93833 -8.73726 18.7017 -7.07453 -8.91668 18.7713 -7.05437 -8.91527 19.0379 -6.86722 -8.71818 19.5273 -1.86471 -3.37043 22.7313 -2.28058 -3.98257 22.8353 -2.67575 -4.55711 22.8026 -3.04718 -5.09909 22.6266 -3.39335 -5.61436 22.2982 -3.71429 -6.11004 21.8054 -4.01163 -6.59502 21.1325 -4.28877 -7.08055 20.2595 -4.8343 -7.89769 19.5787 -5.29741 -8.57912 19.0949 -5.65875 -9.11219 18.802 -5.90314 -9.48463 18.698 -6.01854 -9.68386 18.7868 -5.99495 -9.6956 19.0812 -5.82284 -9.50154 19.608 -1.49985 -3.75843 22.7126 -1.83505 -4.38856 22.7929 -2.16073 -4.9822 22.7425 -2.47034 -5.54643 22.5553 -2.75943 -6.08875 22.223 -3.0253 -6.61768 21.7341 -3.26683 -7.14332 21.0741 -3.48443 -7.678 20.2244 -3.91078 -8.49658 19.5402 -4.28478 -9.18491 19.0579 -4.58301 -9.72979 18.7736 -4.78743 -10.1175 18.6875 -4.88424 -10.3329 18.8055 -4.86279 -10.3584 19.1423 -4.71438 -10.1714 19.7259 -1.14178 -4.15323 22.6865 -1.3816 -4.78729 22.7337 -1.62789 -5.38874 22.6587 -1.86862 -5.96675 22.4561 -2.09525 -6.5304 22.1185 -2.30153 -7.08939 21.6356 -2.4829 -7.65479 20.9946 -2.63618 -8.23963 20.1786 -2.92792 -9.02508 19.4879 -3.20353 -9.69423 19.0053 -3.43443 -10.2324 18.7297 -3.59898 -10.6233 18.6637 -3.6811 -10.8486 18.816 -3.66926 -10.8865 19.2033 -3.55565 -10.7092 19.8547 -0.793122 -4.55743 22.6529 -0.920473 -5.17926 22.6577 -1.07712 -5.77635 22.5514 -1.24233 -6.35964 22.3295 -1.40157 -6.93943 21.9856 -1.54382 -7.5263 21.5115 -1.66026 -8.13185 20.8961 -1.74342 -8.76931 20.1255 -1.88755 -9.48156 19.4235 -2.05791 -10.1005 18.9361 -2.21964 -10.6087 18.665 -2.34676 -10.9867 18.6161 -2.42064 -11.2119 18.8005 -2.4289 -11.2578 19.2368 -2.36493 -11.0914 19.9544 -0.458094 -4.97527 22.6118 -0.452063 -5.56522 22.5651 -0.508292 -6.14451 22.4209 -0.591789 -6.72464 22.1759 -0.679195 -7.31629 21.8256 -0.753117 -7.93026 21.3636 -0.799346 -8.57807 20.7818 -0.805328 -9.27249 20.0698 -0.791419 -9.86453 19.3492 -0.852573 -10.3958 18.8483 -0.946352 -10.845 18.5722 -1.04192 -11.1884 18.5294 -1.11796 -11.3988 18.7332 -1.16152 -11.4445 19.2032 -1.1677 -11.2877 19.967 -0.143574 -5.41361 22.5633 0.0229573 -5.94627 22.4561 0.0788707 -6.49251 22.2677 0.0827317 -7.06126 21.9964 0.0709653 -7.66186 21.6397 0.0695842 -8.30412 21.1943 0.0995172 -8.99861 20.6556 0.179353 -9.75681 20.0181 0.35878 -10.1728 19.2677 0.407212 -10.5709 18.7391 0.375908 -10.9245 18.4401 0.301012 -11.2044 18.3813 0.206417 -11.3786 18.5769 0.105199 -11.4108 19.0458 2.30395e-15 -11.2595 19.8115 -4.95959 -0.125408 23.85 -5.4982 0.0833701 23.6236 -6.06001 0.141509 23.3314 -6.65305 0.126168 22.9719 -7.28566 0.0836541 22.5432 -7.96662 0.0459983 22.0425 -8.70528 0.0382257 21.4665 -9.51171 0.0819665 20.8114 -9.74658 0.31577 19.9225 -9.98924 0.400808 19.2092 -10.2175 0.390552 18.675 -10.4078 0.323424 18.3247 -10.5351 0.226149 18.165 -10.572 0.115651 18.2048 -10.4887 -3.09287e-15 18.4552 -4.51125 -0.367664 23.9188 -5.12278 -0.34402 23.752 -5.72956 -0.410622 23.5052 -6.34316 -0.520111 23.1753 -6.97375 -0.64194 22.7579 -7.63129 -0.754024 22.2475 -8.32626 -0.838796 21.6372 -9.07019 -0.881122 20.9182 -9.47391 -0.79344 20.0645 -9.84305 -0.801111 19.382 -10.1612 -0.860086 18.8712 -10.4104 -0.937931 18.5344 -10.5708 -1.01137 18.3765 -10.6201 -1.06483 18.4051 -10.5331 -1.08963 18.6322 -4.09402 -0.641027 23.9771 -4.74769 -0.768892 23.861 -5.38068 -0.945975 23.6531 -6.00412 -1.14303 23.3488 -6.62784 -1.34015 22.9421 -7.26164 -1.52261 22.4251 -7.91611 -1.67879 21.7881 -8.60331 -1.79904 21.0187 -9.12467 -1.85133 20.1888 -9.57916 -1.95197 19.5231 -9.9545 -2.06522 19.0189 -10.237 -2.16435 18.6758 -10.4117 -2.2298 18.4955 -10.4615 -2.24795 18.4836 -10.3666 -2.2104 18.6504 -3.69837 -0.935976 24.0248 -4.37081 -1.1899 23.9505 -5.01386 -1.46468 23.7746 -5.63667 -1.74226 23.4917 -6.24768 -2.00998 23.0944 -6.85574 -2.25857 22.573 -7.47087 -2.48113 21.9157 -8.10499 -2.67257 21.1074 -8.70056 -2.85574 20.2932 -9.2064 -3.0462 19.6355 -9.61285 -3.2154 19.1287 -9.90958 -3.3418 18.7692 -10.0855 -3.40956 18.5559 -10.1283 -3.40742 18.4912 -10.0234 -3.32794 18.5832 -3.31844 -1.24665 24.0618 -3.99069 -1.60619 24.0202 -4.62949 -1.9668 23.8695 -5.24147 -2.31746 23.6035 -5.83329 -2.65052 23.2138 -6.41242 -2.96077 22.6897 -6.9879 -3.24506 22.0176 -7.57093 -3.50212 21.1803 -8.20344 -3.80449 20.376 -8.73226 -4.0789 19.7213 -9.14907 -4.30281 19.2079 -9.44573 -4.45932 18.8293 -9.61415 -4.53599 18.5817 -9.6458 -4.52404 18.4647 -9.53071 -4.41742 18.4833 -2.95057 -1.56938 24.0883 -3.60639 -2.01726 24.0702 -4.22785 -2.45235 23.9375 -4.81912 -2.86826 23.6837 -5.38489 -3.26088 23.2997 -5.93111 -3.62811 22.774 -6.46549 -3.96981 22.0917 -6.99811 -4.28788 21.2344 -7.63532 -4.69536 20.4362 -8.16325 -5.04549 19.7818 -8.5738 -5.32073 19.2613 -8.85991 -5.50796 18.8659 -9.01537 -5.59773 18.5895 -9.03432 -5.58345 18.4293 -8.91032 -5.46052 18.3879 -2.59253 -1.90193 24.1042 -3.21722 -2.42282 24.1001 -3.80917 -2.92131 23.9783 -4.37014 -3.39425 23.7319 -4.90289 -3.84023 23.3515 -5.41168 -4.25959 22.8248 -5.90268 -4.65466 22.1366 -6.38448 -5.03001 21.2677 -6.99829 -5.5261 20.4726 -7.50512 -5.94164 19.8179 -7.89603 -6.26296 19.2921 -8.16397 -6.47992 18.8854 -8.30348 -6.58534 18.5901 -8.31015 -6.57425 18.4018 -8.17975 -6.4431 18.3213 -2.24311 -2.24311 24.1095 -2.82278 -2.82278 24.1101 -3.37361 -3.37361 23.992 -3.89503 -3.89503 23.748 -4.3878 -4.3878 23.3688 -4.85435 -4.85435 22.8419 -5.29907 -5.29907 22.1517 -5.72872 -5.72872 21.2789 -6.29448 -6.29448 20.4848 -6.763 -6.763 19.8299 -7.12348 -7.12348 19.3022 -7.36781 -7.36781 18.8915 -7.49019 -7.49019 18.5896 -7.48646 -7.48646 18.3916 -7.35328 -7.35328 18.2976 -1.90193 -2.59253 24.1042 -2.42282 -3.21722 24.1001 -2.92131 -3.80917 23.9783 -3.39425 -4.37014 23.7319 -3.84023 -4.90289 23.3515 -4.25959 -5.41168 22.8248 -4.65466 -5.90268 22.1366 -5.03001 -6.38448 21.2677 -5.5261 -6.99829 20.4726 -5.94164 -7.50512 19.8179 -6.26296 -7.89603 19.2921 -6.47992 -8.16397 18.8854 -6.58534 -8.30348 18.5901 -6.57425 -8.31015 18.4018 -6.4431 -8.17975 18.3213 -1.56938 -2.95057 24.0883 -2.01726 -3.60639 24.0702 -2.45235 -4.22785 23.9375 -2.86826 -4.81912 23.6837 -3.26088 -5.38489 23.2997 -3.62811 -5.93111 22.774 -3.96981 -6.46549 22.0917 -4.28788 -6.99811 21.2344 -4.69536 -7.63532 20.4362 -5.04549 -8.16325 19.7818 -5.32073 -8.5738 19.2613 -5.50796 -8.85991 18.8659 -5.59773 -9.01537 18.5895 -5.58345 -9.03432 18.4293 -5.46052 -8.91032 18.3879 -1.24665 -3.31844 24.0618 -1.60619 -3.99069 24.0202 -1.9668 -4.62949 23.8695 -2.31746 -5.24147 23.6035 -2.65052 -5.83329 23.2138 -2.96077 -6.41242 22.6897 -3.24506 -6.9879 22.0176 -3.50212 -7.57093 21.1803 -3.80449 -8.20344 20.376 -4.0789 -8.73226 19.7213 -4.30281 -9.14907 19.2079 -4.45932 -9.44573 18.8293 -4.53599 -9.61415 18.5817 -4.52404 -9.6458 18.4647 -4.41742 -9.53071 18.4833 -0.935976 -3.69837 24.0248 -1.1899 -4.37081 23.9505 -1.46468 -5.01386 23.7746 -1.74226 -5.63667 23.4917 -2.00998 -6.24768 23.0944 -2.25857 -6.85574 22.573 -2.48113 -7.47087 21.9157 -2.67257 -8.10499 21.1074 -2.85574 -8.70056 20.2932 -3.0462 -9.2064 19.6355 -3.2154 -9.61285 19.1287 -3.3418 -9.90958 18.7692 -3.40956 -10.0855 18.5559 -3.40742 -10.1283 18.4912 -3.32794 -10.0234 18.5832 -0.641027 -4.09402 23.9771 -0.768892 -4.74769 23.861 -0.945975 -5.38068 23.6531 -1.14303 -6.00412 23.3488 -1.34015 -6.62784 22.9421 -1.52261 -7.26164 22.4251 -1.67879 -7.91611 21.7881 -1.79904 -8.60331 21.0187 -1.85133 -9.12467 20.1888 -1.95197 -9.57916 19.5231 -2.06522 -9.9545 19.0189 -2.16435 -10.237 18.6758 -2.2298 -10.4117 18.4955 -2.24795 -10.4615 18.4836 -2.2104 -10.3666 18.6504 -0.367664 -4.51125 23.9188 -0.34402 -5.12278 23.752 -0.410622 -5.72956 23.5052 -0.520111 -6.34316 23.1753 -0.64194 -6.97375 22.7579 -0.754024 -7.63129 22.2475 -0.838796 -8.32626 21.6372 -0.881122 -9.07019 20.9182 -0.79344 -9.47391 20.0645 -0.801111 -9.84305 19.382 -0.860086 -10.1612 18.8712 -0.937931 -10.4104 18.5344 -1.01137 -10.5708 18.3765 -1.06483 -10.6201 18.4051 -1.08963 -10.5331 18.6322 -0.125408 -4.95959 23.85 0.0833701 -5.4982 23.6236 0.141509 -6.06001 23.3314 0.126168 -6.65305 22.9719 0.0836541 -7.28566 22.5432 0.0459983 -7.96662 22.0425 0.0382257 -8.70528 21.4665 0.0819665 -9.51171 20.8114 0.31577 -9.74658 19.9225 0.400808 -9.98924 19.2092 0.390552 -10.2175 18.675 0.323424 -10.4078 18.3247 0.226149 -10.5351 18.165 0.115651 -10.572 18.2048 -5.14176e-15 -10.4887 18.4552 -4.58647 -0.176069 25.1367 -5.09963 0.0989697 24.7937 -5.64691 0.178397 24.3972 -6.23541 0.160318 23.9459 -6.87248 0.101664 23.438 -7.56584 0.0406658 22.8718 -8.32364 0.0064098 22.2447 -9.15454 0.0234375 21.5541 -9.24362 0.296709 20.5356 -9.36755 0.406189 19.6534 -9.50837 0.407768 18.9084 -9.64762 0.342437 18.3021 -9.76605 0.240016 17.8372 -9.84349 0.121423 17.5172 -9.8585 -2.34075e-15 17.3464 -4.13063 -0.350286 25.2259 -4.73191 -0.283351 24.9418 -5.33536 -0.338998 24.592 -5.95285 -0.455802 24.1733 -6.59413 -0.595428 23.6818 -7.26838 -0.73093 23.1125 -7.98505 -0.841392 22.4593 -8.75442 -0.909187 21.715 -9.00415 -0.764897 20.7367 -9.24676 -0.733851 19.8873 -9