<?xml version="1.0"?> 
<VTKFile type="StructuredGrid" version="0.1"> 
<StructuredGrid WholeExtent="0 14 0 14 0 29"> 
<Piece Extent="0 14 0 14 0 29"> 
<PointData>
<DataArray type="Float32" Name="efield" format="ascii" NumberOfComponents="3"> 
5.60085e-12 21.1781 1.11373 -1.28612 19.4387 0.81447 -2.60711 17.7343 0.561252 -3.96295 16.0647 0.354074 -5.35366 14.43 0.192935 -6.77923 12.8301 0.0778357 -8.23965 11.2651 0.0087762 -9.73494 9.73494 -0.0142436 -11.2651 8.23965 0.0087762 -12.8301 6.77923 0.0778357 -14.43 5.35366 0.192935 -16.0647 3.96295 0.354074 -17.7343 2.60711 0.561252 -19.4387 1.28612 0.81447 -21.1781 -9.88543e-12 1.11373 1.28612 19.4387 0.81447 5.55522e-12 17.7642 0.823048 -1.316 16.1195 0.830306 -2.66189 14.5047 0.836245 -4.03766 12.9197 0.840864 -5.4433 11.3647 0.844163 -6.87883 9.83952 0.846143 -8.34424 8.34424 0.846802 -9.83952 6.87883 0.846143 -11.3647 5.4433 0.844163 -12.9197 4.03766 0.840864 -14.5047 2.66189 0.836245 -16.1195 1.316 0.830306 -17.7642 -7.55713e-12 0.823048 -19.4387 -1.28612 0.81447 2.60711 17.7343 0.561252 1.316 16.1195 0.830306 5.3654e-12 14.5296 1.05797 -1.34091 12.9646 1.24424 -2.70671 11.4245 1.38911 -4.09742 9.90925 1.49259 -5.51302 8.41894 1.55468 -6.95353 6.95353 1.57538 -8.41894 5.51302 1.55468 -9.90925 4.09742 1.49259 -11.4245 2.70671 1.38911 -12.9646 1.34091 1.24424 -14.5296 -5.41183e-12 1.05797 -16.1195 -1.316 0.830306 -17.7343 -2.60711 0.561252 3.96295 16.0647 0.354074 2.66189 14.5047 0.836245 1.34091 12.9646 1.24424 5.03165e-12 11.4444 1.57805 -1.36083 9.94411 1.83768 -2.74157 8.46376 2.02313 -4.14224 7.00333 2.1344 -5.56282 5.56282 2.17149 -7.00333 4.14224 2.1344 -8.46376 2.74157 2.02313 -9.94411 1.36083 1.83768 -11.4444 -3.46891e-12 1.57805 -12.9646 -1.34091 1.24424 -14.5047 -2.66189 0.836245 -16.0647 -3.96295 0.354074 5.35366 14.43 0.192935 4.03766 12.9197 0.840864 2.70671 11.4245 1.38911 1.36083 9.94411 1.83768 4.54565e-12 8.4787 2.18656 -1.37577 7.02823 2.43577 -2.76647 5.59271 2.58529 -4.17212 4.17212 2.63513 -5.59271 2.76647 2.58529 -7.02823 1.37577 2.43577 -8.4787 -1.72936e-12 2.18656 -9.94411 -1.36083 1.83768 -11.4245 -2.70671 1.38911 -12.9197 -4.03766 0.840864 -14.43 -5.35366 0.192935 6.77923 12.8301 0.0778357 5.4433 11.3647 0.844163 4.09742 9.90925 1.49259 2.74157 8.46376 2.02313 1.37577 7.02823 2.43577 3.90707e-12 5.60267 2.73051 -1.38573 4.18706 2.90735 -2.78141 2.78141 2.9663 -4.18706 1.38573 2.90735 -5.60267 -1.9995e-13 2.73051 -7.02823 -1.37577 2.43577 -8.46376 -2.74157 2.02313 -9.90925 -4.09742 1.49259 -11.3647 -5.4433 0.844163 -12.8301 -6.77923 0.0778357 8.23965 11.2651 0.0087762 6.87883 9.83952 0.846143 5.51302 8.41894 1.55468 4.14224 7.00333 2.1344 2.76647 5.59271 2.58529 1.38573 4.18706 2.90735 3.11079e-12 2.78639 3.10059 -1.39071 1.39071 3.165 -2.78639 1.11352e-12 3.10059 -4.18706 -1.38573 2.90735 -5.59271 -2.76647 2.58529 -7.00333 -4.14224 2.1344 -8.41894 -5.51302 1.55468 -9.83952 -6.87883 0.846143 -11.2651 -8.23965 0.0087762 9.73494 9.73494 -0.0142436 8.34424 8.34424 0.846802 6.95353 6.95353 1.57538 5.56282 5.56282 2.17149 4.17212 4.17212 2.63513 2.78141 2.78141 2.9663 1.39071 1.39071 3.165 2.15216e-12 2.19716e-12 3.23124 -1.39071 -1.39071 3.165 -2.78141 -2.78141 2.9663 -4.17212 -4.17212 2.63513 -5.56282 -5.56282 2.17149 -6.95353 -6.95353 1.57538 -8.34424 -8.34424 0.846802 -9.73494 -9.73494 -0.0142436 11.2651 8.23965 0.0087762 9.83952 6.87883 0.846143 8.41894 5.51302 1.55468 7.00333 4.14224 2.1344 5.59271 2.76647 2.58529 4.18706 1.38573 2.90735 2.78639 1.80156e-12 3.10059 1.39071 -1.39071 3.165 2.63037e-12 -2.78639 3.10059 -1.38573 -4.18706 2.90735 -2.76647 -5.59271 2.58529 -4.14224 -7.00333 2.1344 -5.51302 -8.41894 1.55468 -6.87883 -9.83952 0.846143 -8.23965 -11.2651 0.0087762 12.8301 6.77923 0.0778357 11.3647 5.4433 0.844163 9.90925 4.09742 1.49259 8.46376 2.74157 2.02313 7.02823 1.37577 2.43577 5.60267 1.21547e-12 2.73051 4.18706 -1.38573 2.90735 2.78141 -2.78141 2.9663 1.38573 -4.18706 2.90735 2.98642e-12 -5.60267 2.73051 -1.37577 -7.02823 2.43577 -2.74157 -8.46376 2.02313 -4.09742 -9.90925 1.49259 -5.4433 -11.3647 0.844163 -6.77923 -12.8301 0.0778357 14.43 5.35366 0.192935 12.9197 4.03766 0.840864 11.4245 2.70671 1.38911 9.94411 1.36083 1.83768 8.4787 4.40314e-13 2.18656 7.02823 -1.37577 2.43577 5.59271 -2.76647 2.58529 4.17212 -4.17212 2.63513 2.76647 -5.59271 2.58529 1.37577 -7.02823 2.43577 3.21332e-12 -8.4787 2.18656 -1.36083 -9.94411 1.83768 -2.70671 -11.4245 1.38911 -4.03766 -12.9197 0.840864 -5.35366 -14.43 0.192935 16.0647 3.96295 0.354074 14.5047 2.66189 0.836245 12.9646 1.34091 1.24424 11.4444 -5.31464e-13 1.57805 9.94411 -1.36083 1.83768 8.46376 -2.74157 2.02313 7.00333 -4.14224 2.1344 5.56282 -5.56282 2.17149 4.14224 -7.00333 2.1344 2.74157 -8.46376 2.02313 1.36083 -9.94411 1.83768 3.30314e-12 -11.4444 1.57805 -1.34091 -12.9646 1.24424 -2.66189 -14.5047 0.836245 -3.96295 -16.0647 0.354074 17.7343 2.60711 0.561252 16.1195 1.316 0.830306 14.5296 -1.70841e-12 1.05797 12.9646 -1.34091 1.24424 11.4245 -2.70671 1.38911 9.90925 -4.09742 1.49259 8.41894 -5.51302 1.55468 6.95353 -6.95353 1.57538 5.51302 -8.41894 1.55468 4.09742 -9.90925 1.49259 2.70671 -11.4245 1.38911 1.34091 -12.9646 1.24424 3.24718e-12 -14.5296 1.05797 -1.316 -16.1195 0.830306 -2.60711 -17.7343 0.561252 19.4387 1.28612 0.81447 17.7642 -3.09253e-12 0.823048 16.1195 -1.316 0.830306 14.5047 -2.66189 0.836245 12.9197 -4.03766 0.840864 11.3647 -5.4433 0.844163 9.83952 -6.87883 0.846143 8.34424 -8.34424 0.846802 6.87883 -9.83952 0.846143 5.4433 -11.3647 0.844163 4.03766 -12.9197 0.840864 2.66189 -14.5047 0.836245 1.316 -16.1195 0.830306 3.03935e-12 -17.7642 0.823048 -1.28612 -19.4387 0.81447 21.1781 -4.69136e-12 1.11373 19.4387 -1.28612 0.81447 17.7343 -2.60711 0.561252 16.0647 -3.96295 0.354074 14.43 -5.35366 0.192935 12.8301 -6.77923 0.0778357 11.2651 -8.23965 0.0087762 9.73494 -9.73494 -0.0142436 8.23965 -11.2651 0.0087762 6.77923 -12.8301 0.0778357 5.35366 -14.43 0.192935 3.96295 -16.0647 0.354074 2.60711 -17.7343 0.561252 1.28612 -19.4387 0.81447 2.66809e-12 -21.1781 1.11373 2.6068e-12 19.226 19.8318 -1.56087 18.0403 19.8751 -3.09288 16.8257 19.9116 -4.59603 15.5823 19.9416 -6.07032 14.31 19.9649 -7.51575 13.0089 19.9815 -8.93233 11.6789 19.9915 -10.32 10.32 19.9948 -11.6789 8.93233 19.9915 -13.0089 7.51575 19.9815 -14.31 6.07032 19.9649 -15.5823 4.59603 19.9416 -16.8257 3.09288 19.9116 -18.0403 1.56087 19.8751 -19.226 -5.68434e-13 19.8318 1.56087 18.0403 19.8751 2.89418e-12 16.801 19.8725 -1.53613 15.537 19.8703 -3.04753 14.2482 19.8685 -4.53419 12.9347 19.8672 -5.99611 11.5964 19.8662 -7.4333 10.2335 19.8656 -8.84575 8.84575 19.8654 -10.2335 7.4333 19.8656 -11.5964 5.99611 19.8662 -12.9347 4.53419 19.8672 -14.2482 3.04753 19.8685 -15.537 1.53613 19.8703 -16.801 -3.88181e-13 19.8725 -18.0403 -1.56087 19.8751 3.09288 16.8257 19.9116 1.53613 15.537 19.8703 3.13872e-12 14.2276 19.8353 -1.51552 12.8976 19.8067 -3.01042 11.547 19.7845 -4.48472 10.1757 19.7686 -5.93839 8.78391 19.7591 -7.37146 7.37146 19.7559 -8.78391 5.93839 19.7591 -10.1757 4.48472 19.7686 -11.547 3.01042 19.7845 -12.8976 1.51552 19.8067 -14.2276 -2.08645e-13 19.8353 -15.537 -1.53613 19.8703 -16.8257 -3.09288 19.9116 4.59603 15.5823 19.9416 3.04753 14.2482 19.8685 1.51552 12.8976 19.8067 3.35522e-12 11.5305 19.7562 -1.49903 10.1469 19.7168 -2.98156 8.74681 19.6888 -4.44761 7.33023 19.6719 -5.89717 5.89717 19.6663 -7.33023 4.44761 19.6719 -8.74681 2.98156 19.6888 -10.1469 1.49903 19.7168 -11.5305 -4.24924e-14 19.7562 -12.8976 -1.51552 19.8067 -14.2482 -3.04753 19.8685 -15.5823 -4.59603 19.9416 6.07032 14.31 19.9649 4.53419 12.9347 19.8672 3.01042 11.547 19.7845 1.49903 10.1469 19.7168 3.54285e-12 8.73444 19.6642 -1.48666 7.30962 19.6267 -2.96095 5.87243 19.6041 -4.42288 4.42288 19.5966 -5.87243 2.96095 19.6041 -7.30962 1.48666 19.6267 -8.73444 1.16039e-13 19.6642 -10.1469 -1.49903 19.7168 -11.547 -3.01042 19.7845 -12.9347 -4.53419 19.8672 -14.31 -6.07032 19.9649 7.51575 13.0089 19.9815 5.99611 11.5964 19.8662 4.48472 10.1757 19.7686 2.98156 8.74681 19.6888 1.48666 7.30962 19.6267 3.7072e-12 5.86419 19.5823 -1.47841 4.41051 19.5557 -2.94858 2.94858 19.5468 -4.41051 1.47841 19.5557 -5.86419 2.60318e-13 19.5823 -7.30962 -1.48666 19.6267 -8.74681 -2.98156 19.6888 -10.1757 -4.48472 19.7686 -11.5964 -5.99611 19.8662 -13.0089 -7.51575 19.9815 8.93233 11.6789 19.9915 7.4333 10.2335 19.8656 5.93839 8.78391 19.7591 4.44761 7.33023 19.6719 2.96095 5.87243 19.6041 1.47841 4.41051 19.5557 3.85438e-12 2.94446 19.5266 -1.47429 1.47429 19.5169 -2.94446 3.93852e-13 19.5266 -4.41051 -1.47841 19.5557 -5.87243 -2.96095 19.6041 -7.33023 -4.44761 19.6719 -8.78391 -5.93839 19.7591 -10.2335 -7.4333 19.8656 -11.6789 -8.93233 19.9915 10.32 10.32 19.9948 8.84575 8.84575 19.8654 7.37146 7.37146 19.7559 5.89717 5.89717 19.6663 4.42288 4.42288 19.5966 2.94858 2.94858 19.5468 1.47429 1.47429 19.5169 3.9902e-12 5.05554e-13 19.507 -1.47429 -1.47429 19.5169 -2.94858 -2.94858 19.5468 -4.42288 -4.42288 19.5966 -5.89717 -5.89717 19.6663 -7.37146 -7.37146 19.7559 -8.84575 -8.84575 19.8654 -10.32 -10.32 19.9948 11.6789 8.93233 19.9915 10.2335 7.4333 19.8656 8.78391 5.93839 19.7591 7.33023 4.44761 19.6719 5.87243 2.96095 19.6041 4.41051 1.47841 19.5557 2.94446 8.58952e-13 19.5266 1.47429 -1.47429 19.5169 3.77105e-12 -2.94446 19.5266 -1.47841 -4.41051 19.5557 -2.96095 -5.87243 19.6041 -4.44761 -7.33023 19.6719 -5.93839 -8.78391 19.7591 -7.4333 -10.2335 19.8656 -8.93233 -11.6789 19.9915 13.0089 7.51575 19.9815 11.5964 5.99611 19.8662 10.1757 4.48472 19.7686 8.74681 2.98156 19.6888 7.30962 1.48666 19.6267 5.86419 1.16601e-12 19.5823 4.41051 -1.47841 19.5557 2.94858 -2.94858 19.5468 1.47841 -4.41051 19.5557 3.52798e-12 -5.86419 19.5823 -1.48666 -7.30962 19.6267 -2.98156 -8.74681 19.6888 -4.48472 -10.1757 19.7686 -5.99611 -11.5964 19.8662 -7.51575 -13.0089 19.9815 14.31 6.07032 19.9649 12.9347 4.53419 19.8672 11.547 3.01042 19.7845 10.1469 1.49903 19.7168 8.73444 1.42963e-12 19.6642 7.30962 -1.48666 19.6267 5.87243 -2.96095 19.6041 4.42288 -4.42288 19.5966 2.96095 -5.87243 19.6041 1.48666 -7.30962 19.6267 3.2615e-12 -8.73444 19.6642 -1.49903 -10.1469 19.7168 -3.01042 -11.547 19.7845 -4.53419 -12.9347 19.8672 -6.07032 -14.31 19.9649 15.5823 4.59603 19.9416 14.2482 3.04753 19.8685 12.8976 1.51552 19.8067 11.5305 1.64863e-12 19.7562 10.1469 -1.49903 19.7168 8.74681 -2.98156 19.6888 7.33023 -4.44761 19.6719 5.89717 -5.89717 19.6663 4.44761 -7.33023 19.6719 2.98156 -8.74681 19.6888 1.49903 -10.1469 19.7168 2.98028e-12 -11.5305 19.7562 -1.51552 -12.8976 19.8067 -3.04753 -14.2482 19.8685 -4.59603 -15.5823 19.9416 16.8257 3.09288 19.9116 15.537 1.53613 19.8703 14.2276 1.8186e-12 19.8353 12.8976 -1.51552 19.8067 11.547 -3.01042 19.7845 10.1757 -4.48472 19.7686 8.78391 -5.93839 19.7591 7.37146 -7.37146 19.7559 5.93839 -8.78391 19.7591 4.48472 -10.1757 19.7686 3.01042 -11.547 19.7845 1.51552 -12.8976 19.8067 2.68341e-12 -14.2276 19.8353 -1.53613 -15.537 19.8703 -3.09288 -16.8257 19.9116 18.0403 1.56087 19.8751 16.801 1.93823e-12 19.8725 15.537 -1.53613 19.8703 14.2482 -3.04753 19.8685 12.9347 -4.53419 19.8672 11.5964 -5.99611 19.8662 10.2335 -7.4333 19.8656 8.84575 -8.84575 19.8654 7.4333 -10.2335 19.8656 5.99611 -11.5964 19.8662 4.53419 -12.9347 19.8672 3.04753 -14.2482 19.8685 1.53613 -15.537 19.8703 2.37499e-12 -16.801 19.8725 -1.56087 -18.0403 19.8751 19.226 2.00817e-12 19.8318 18.0403 -1.56087 19.8751 16.8257 -3.09288 19.9116 15.5823 -4.59603 19.9416 14.31 -6.07032 19.9649 13.0089 -7.51575 19.9815 11.6789 -8.93233 19.9915 10.32 -10.32 19.9948 8.93233 -11.6789 19.9915 7.51575 -13.0089 19.9815 6.07032 -14.31 19.9649 4.59603 -15.5823 19.9416 3.09288 -16.8257 19.9116 1.56087 -18.0403 19.8751 2.06413e-12 -19.226 19.8318 1.59162e-12 17.2723 34.2613 -1.35609 16.1609 34.5023 -2.69336 15.0307 34.7062 -4.01181 13.8817 34.8731 -5.31143 12.7138 35.0028 -6.59223 11.5272 35.0955 -7.8542 10.3217 35.1511 -9.09735 9.09735 35.1697 -10.3217 7.8542 35.1511 -11.5272 6.59223 35.0955 -12.7138 5.31143 35.0028 -13.8817 4.01181 34.8731 -15.0307 2.69336 34.7062 -16.1609 1.35609 34.5023 -17.2723 9.56213e-12 34.2613 1.35609 16.1609 34.5023 2.02776e-12 15.0146 34.7594 -1.33996 13.8521 34.9769 -2.66378 12.6735 35.1549 -3.97147 11.4788 35.2934 -5.26302 10.2679 35.3923 -6.53844 9.04087 35.4516 -7.79772 7.79772 35.4714 -9.04087 6.53844 35.4516 -10.2679 5.26302 35.3923 -11.4788 3.97147 35.2934 -12.6735 2.66378 35.1549 -13.8521 1.33996 34.9769 -15.0146 7.37639e-12 34.7594 -16.1609 -1.35609 34.5023 2.69336 15.0307 34.7062 1.33996 13.8521 34.9769 2.36955e-12 12.6601 35.206 -1.32651 11.4546 35.3934 -2.63958 10.2356 35.5392 -3.9392 9.00322 35.6433 -5.22538 7.75739 35.7058 -6.4981 6.4981 35.7266 -7.75739 5.22538 35.7058 -9.00322 3.9392 35.6433 -10.2356 2.63958 35.5392 -11.4546 1.32651 35.3934 -12.6601 5.60382e-12 35.206 -13.8521 -1.33996 34.9769 -15.0307 -2.69336 34.7062 4.01181 13.8817 34.8731 2.66378 12.6735 35.1549 1.32651 11.4546 35.3934 2.5938e-12 10.2249 35.5886 -1.31576 8.9844 35.7404 -2.62076 7.73318 35.8488 -3.915 6.47121 35.9138 -5.19848 5.19848 35.9355 -6.47121 3.915 35.9138 -7.73318 2.62076 35.8488 -8.9844 1.31576 35.7404 -10.2249 4.21129e-12 35.5886 -11.4546 -1.32651 35.3934 -12.6735 -2.66378 35.1549 -13.8817 -4.01181 34.8731 5.31143 12.7138 35.0028 3.97147 11.4788 35.2934 2.63958 10.2356 35.5392 1.31576 8.9844 35.7404 2.67851e-12 7.72512 35.8968 -1.30769 6.45777 36.0086 -2.60731 5.18235 36.0756 -3.89886 3.89886 36.098 -5.18235 2.60731 36.0756 -6.45777 1.30769 36.0086 -7.72512 3.18442e-12 35.8968 -8.9844 -1.31576 35.7404 -10.2356 -2.63958 35.5392 -11.4788 -3.97147 35.2934 -12.7138 -5.31143 35.0028 6.59223 11.5272 35.0955 5.26302 10.2679 35.3923 3.9392 9.00322 35.6433 2.62076 7.73318 35.8488 1.30769 6.45777 36.0086 2.59801e-12 5.17697 36.1227 -1.30231 3.89079 36.1912 -2.59924 2.59924 36.214 -3.89079 1.30231 36.1912 -5.17697 2.50571e-12 36.1227 -6.45777 -1.30769 36.0086 -7.73318 -2.62076 35.8488 -9.00322 -3.9392 35.6433 -10.2679 -5.26302 35.3923 -11.5272 -6.59223 35.0955 7.8542 10.3217 35.1511 6.53844 9.04087 35.4516 5.22538 7.75739 35.7058 3.915 6.47121 35.9138 2.60731 5.18235 36.0756 1.30231 3.89079 36.1912 2.3262e-12 2.59655 36.2605 -1.29962 1.29962 36.2836 -2.59655 2.16164e-12 36.2605 -3.89079 -1.30231 36.1912 -5.18235 -2.60731 36.0756 -6.47121 -3.915 35.9138 -7.75739 -5.22538 35.7058 -9.04087 -6.53844 35.4516 -10.3217 -7.8542 35.1511 9.09735 9.09735 35.1697 7.79772 7.79772 35.4714 6.4981 6.4981 35.7266 5.19848 5.19848 35.9355 3.89886 3.89886 36.098 2.59924 2.59924 36.214 1.29962 1.29962 36.2836 1.83765e-12 2.12404e-12 36.3068 -1.29962 -1.29962 36.2836 -2.59924 -2.59924 36.214 -3.89886 -3.89886 36.098 -5.19848 -5.19848 35.9355 -6.4981 -6.4981 35.7266 -7.79772 -7.79772 35.4714 -9.09735 -9.09735 35.1697 10.3217 7.8542 35.1511 9.04087 6.53844 35.4516 7.75739 5.22538 35.7058 6.47121 3.915 35.9138 5.18235 2.60731 36.0756 3.89079 1.30231 36.1912 2.59655 1.23007e-12 36.2605 1.29962 -1.29962 36.2836 2.94491e-12 -2.59655 36.2605 -1.30231 -3.89079 36.1912 -2.60731 -5.18235 36.0756 -3.915 -6.47121 35.9138 -5.22538 -7.75739 35.7058 -6.53844 -9.04087 35.4516 -7.8542 -10.3217 35.1511 11.5272 6.59223 35.0955 10.2679 5.26302 35.3923 9.00322 3.9392 35.6433 7.73318 2.62076 35.8488 6.45777 1.30769 36.0086 5.17697 4.91052e-13 36.1227 3.89079 -1.30231 36.1912 2.59924 -2.59924 36.214 1.30231 -3.89079 36.1912 3.68622e-12 -5.17697 36.1227 -1.30769 -6.45777 36.0086 -2.62076 -7.73318 35.8488 -3.9392 -9.00322 35.6433 -5.26302 -10.2679 35.3923 -6.59223 -11.5272 35.0955 12.7138 5.31143 35.0028 11.4788 3.97147 35.2934 10.2356 2.63958 35.5392 8.9844 1.31576 35.7404 7.72512 -1.12022e-13 35.8968 6.45777 -1.30769 36.0086 5.18235 -2.60731 36.0756 3.89886 -3.89886 36.098 2.60731 -5.18235 36.0756 1.30769 -6.45777 36.0086 4.04654e-12 -7.72512 35.8968 -1.31576 -8.9844 35.7404 -2.63958 -10.2356 35.5392 -3.97147 -11.4788 35.2934 -5.31143 -12.7138 35.0028 13.8817 4.01181 34.8731 12.6735 2.66378 35.1549 11.4546 1.32651 35.3934 10.2249 -6.08236e-13 35.5886 8.9844 -1.31576 35.7404 7.73318 -2.62076 35.8488 6.47121 -3.915 35.9138 5.19848 -5.19848 35.9355 3.915 -6.47121 35.9138 2.62076 -7.73318 35.8488 1.31576 -8.9844 35.7404 4.00724e-12 -10.2249 35.5886 -1.32651 -11.4546 35.3934 -2.66378 -12.6735 35.1549 -4.01181 -13.8817 34.8731 15.0307 2.69336 34.7062 13.8521 1.33996 34.9769 12.6601 -1.02623e-12 35.206 11.4546 -1.32651 35.3934 10.2356 -2.63958 35.5392 9.00322 -3.9392 35.6433 7.75739 -5.22538 35.7058 6.4981 -6.4981 35.7266 5.22538 -7.75739 35.7058 3.9392 -9.00322 35.6433 2.63958 -10.2356 35.5392 1.32651 -11.4546 35.3934 3.55227e-12 -12.6601 35.206 -1.33996 -13.8521 34.9769 -2.69336 -15.0307 34.7062 16.1609 1.35609 34.5023 15.0146 -1.39119e-12 34.7594 13.8521 -1.33996 34.9769 12.6735 -2.66378 35.1549 11.4788 -3.97147 35.2934 10.2679 -5.26302 35.3923 9.04087 -6.53844 35.4516 7.79772 -7.79772 35.4714 6.53844 -9.04087 35.4516 5.26302 -10.2679 35.3923 3.97147 -11.4788 35.2934 2.66378 -12.6735 35.1549 1.33996 -13.8521 34.9769 2.6672e-12 -15.0146 34.7594 -1.35609 -16.1609 34.5023 17.2723 -1.73017e-12 34.2613 16.1609 -1.35609 34.5023 15.0307 -2.69336 34.7062 13.8817 -4.01181 34.8731 12.7138 -5.31143 35.0028 11.5272 -6.59223 35.0955 10.3217 -7.8542 35.1511 9.09735 -9.09735 35.1697 7.8542 -10.3217 35.1511 6.59223 -11.5272 35.0955 5.31143 -12.7138 35.0028 4.01181 -13.8817 34.8731 2.69336 -15.0307 34.7062 1.35609 -16.1609 34.5023 1.33049e-12 -17.2723 34.2613 3.83202e-12 16.2791 39.851 -1.28266 15.2362 40.1107 -2.54687 14.1748 40.3306 -3.79265 13.095 40.5104 -5.01999 11.9968 40.6503 -6.22888 10.8801 40.7502 -7.41934 9.74493 40.8102 -8.59135 8.59135 40.8302 -9.74493 7.41934 40.8102 -10.8801 6.22888 40.7502 -11.9968 5.01999 40.6503 -13.095 3.79265 40.5104 -14.1748 2.54687 40.3306 -15.2362 1.28266 40.1107 -16.2791 6.7156e-12 39.851 1.28266 15.2362 40.1107 3.62435e-12 14.159 40.3732 -1.26685 13.066 40.5953 -2.5179 11.9572 40.7769 -3.75314 10.8326 40.9183 -4.97257 9.69224 41.0192 -6.17619 8.53603 41.0798 -7.36402 7.36402 41.0999 -8.53603 6.17619 41.0798 -9.69224 4.97257 41.0192 -10.8326 3.75314 40.9183 -11.9572 2.5179 40.7769 -13.066 1.26685 40.5953 -14.159 5.07664e-12 40.3732 -15.2362 -1.28266 40.1107 2.54687 14.1748 40.3306 1.26685 13.066 40.5953 3.53035e-12 11.9441 40.8192 -1.25368 10.8089 41.0025 -2.49419 9.66063 41.145 -3.72152 8.49915 41.2468 -4.93569 7.3245 41.3079 -6.13668 6.13668 41.3282 -7.3245 4.93569 41.3079 -8.49915 3.72152 41.2468 -9.66063 2.49419 41.145 -10.8089 1.25368 41.0025 -11.9441 3.74004e-12 40.8192 -13.066 -1.26685 40.5953 -14.1748 -2.54687 40.3306 3.79265 13.095 40.5104 2.5179 11.9572 40.7769 1.25368 10.8089 41.0025 3.54338e-12 9.65009 41.187 -1.24314 8.48071 41.3305 -2.47575 7.30079 41.433 -3.69781 6.11034 41.4945 -4.90934 4.90934 41.515 -6.11034 3.69781 41.4945 -7.30079 2.47575 41.433 -8.48071 1.24314 41.3305 -9.65009 2.69997e-12 41.187 -10.8089 -1.25368 41.0025 -11.9572 -2.5179 40.7769 -13.095 -3.79265 40.5104 5.01999 11.9968 40.6503 3.75314 10.8326 40.9183 2.49419 9.66063 41.145 1.24314 8.48071 41.3305 3.65358e-12 7.29289 41.4748 -1.23524 6.09716 41.5778 -2.46257 4.89354 41.6396 -3.68201 3.68201 41.6603 -4.89354 2.46257 41.6396 -6.09716 1.23524 41.5778 -7.29289 1.94991e-12 41.4748 -8.48071 -1.24314 41.3305 -9.66063 -2.49419 41.145 -10.8326 -3.75314 40.9183 -11.9968 -5.01999 40.6503 6.22888 10.8801 40.7502 4.97257 9.69224 41.0192 3.72152 8.49915 41.2468 2.47575 7.30079 41.433 1.23524 6.09716 41.5778 3.8419e-12 4.88827 41.6813 -1.22997 3.6741 41.7433 -2.45467 2.45467 41.764 -3.6741 1.22997 41.7433 -4.88827 1.48101e-12 41.6813 -6.09716 -1.23524 41.5778 -7.30079 -2.47575 41.433 -8.49915 -3.72152 41.2468 -9.69224 -4.97257 41.0192 -10.8801 -6.22888 40.7502 7.41934 9.74493 40.8102 6.17619 8.53603 41.0798 4.93569 7.3245 41.3079 3.69781 6.11034 41.4945 2.46257 4.89354 41.6396 1.22997 3.6741 41.7433 4.09994e-12 2.45204 41.8055 -1.22734 1.22734 41.8263 -2.45204 1.2913e-12 41.8055 -3.6741 -1.22997 41.7433 -4.89354 -2.46257 41.6396 -6.11034 -3.69781 41.4945 -7.3245 -4.93569 41.3079 -8.53603 -6.17619 41.0798 -9.74493 -7.41934 40.8102 8.59135 8.59135 40.8302 7.36402 7.36402 41.0999 6.13668 6.13668 41.3282 4.90934 4.90934 41.515 3.68201 3.68201 41.6603 2.45467 2.45467 41.764 1.22734 1.22734 41.8263 4.41162e-12 1.36609e-12 41.847 -1.22734 -1.22734 41.8263 -2.45467 -2.45467 41.764 -3.68201 -3.68201 41.6603 -4.90934 -4.90934 41.515 -6.13668 -6.13668 41.3282 -7.36402 -7.36402 41.0999 -8.59135 -8.59135 40.8302 9.74493 7.41934 40.8102 8.53603 6.17619 41.0798 7.3245 4.93569 41.3079 6.11034 3.69781 41.4945 4.89354 2.46257 41.6396 3.6741 1.22997 41.7433 2.45204 1.23082e-12 41.8055 1.22734 -1.22734 41.8263 4.01005e-12 -2.45204 41.8055 -1.22997 -3.6741 41.7433 -2.46257 -4.89354 41.6396 -3.69781 -6.11034 41.4945 -4.93569 -7.3245 41.3079 -6.17619 -8.53603 41.0798 -7.41934 -9.74493 40.8102 10.8801 6.22888 40.7502 9.69224 4.97257 41.0192 8.49915 3.72152 41.2468 7.30079 2.47575 41.433 6.09716 1.23524 41.5778 4.88827 1.10788e-12 41.6813 3.6741 -1.22997 41.7433 2.45467 -2.45467 41.764 1.22997 -3.6741 41.7433 3.40577e-12 -4.88827 41.6813 -1.23524 -6.09716 41.5778 -2.47575 -7.30079 41.433 -3.72152 -8.49915 41.2468 -4.97257 -9.69224 41.0192 -6.22888 -10.8801 40.7502 11.9968 5.01999 40.6503 10.8326 3.75314 40.9183 9.66063 2.49419 41.145 8.48071 1.24314 41.3305 7.29289 9.86956e-13 41.4748 6.09716 -1.23524 41.5778 4.89354 -2.46257 41.6396 3.68201 -3.68201 41.6603 2.46257 -4.89354 41.6396 1.23524 -6.09716 41.5778 2.58633e-12 -7.29289 41.4748 -1.24314 -8.48071 41.3305 -2.49419 -9.66063 41.145 -3.75314 -10.8326 40.9183 -5.01999 -11.9968 40.6503 13.095 3.79265 40.5104 11.9572 2.5179 40.7769 10.8089 1.25368 41.0025 9.65009 8.55442e-13 41.187 8.48071 -1.24314 41.3305 7.30079 -2.47575 41.433 6.11034 -3.69781 41.4945 4.90934 -4.90934 41.515 3.69781 -6.11034 41.4945 2.47575 -7.30079 41.433 1.24314 -8.48071 41.3305 1.53963e-12 -9.65009 41.187 -1.25368 -10.8089 41.0025 -2.5179 -11.9572 40.7769 -3.79265 -13.095 40.5104 14.1748 2.54687 40.3306 13.066 1.26685 40.5953 11.9441 6.94181e-13 40.8192 10.8089 -1.25368 41.0025 9.66063 -2.49419 41.145 8.49915 -3.72152 41.2468 7.3245 -4.93569 41.3079 6.13668 -6.13668 41.3282 4.93569 -7.3245 41.3079 3.72152 -8.49915 41.2468 2.49419 -9.66063 41.145 1.25368 -10.8089 41.0025 2.51119e-13 -11.9441 40.8192 -1.26685 -13.066 40.5953 -2.54687 -14.1748 40.3306 15.2362 1.28266 40.1107 14.159 4.88522e-13 40.3732 13.066 -1.26685 40.5953 11.9572 -2.5179 40.7769 10.8326 -3.75314 40.9183 9.69224 -4.97257 41.0192 8.53603 -6.17619 41.0798 7.36402 -7.36402 41.0999 6.17619 -8.53603 41.0798 4.97257 -9.69224 41.0192 3.75314 -10.8326 40.9183 2.5179 -11.9572 40.7769 1.26685 -13.066 40.5953 -1.28948e-12 -14.159 40.3732 -1.28266 -15.2362 40.1107 16.2791 2.30357e-13 39.851 15.2362 -1.28266 40.1107 14.1748 -2.54687 40.3306 13.095 -3.79265 40.5104 11.9968 -5.01999 40.6503 10.8801 -6.22888 40.7502 9.74493 -7.41934 40.8102 8.59135 -8.59135 40.8302 7.41934 -9.74493 40.8102 6.22888 -10.8801 40.7502 5.01999 -11.9968 40.6503 3.79265 -13.095 40.5104 2.54687 -14.1748 40.3306 1.28266 -15.2362 40.1107 -3.09427e-12 -16.2791 39.851 4.62225e-12 15.2822 44.3932 -1.20632 14.3054 44.7188 -2.39499 13.3109 44.9942 -3.56601 12.2987 45.2196 -4.71938 11.2689 45.3949 -5.85509 10.2214 45.5201 -6.97316 9.15633 45.5953 -8.07357 8.07357 45.6203 -9.15633 6.97316 45.5953 -10.2214 5.85509 45.5201 -11.2689 4.71938 45.3949 -12.2987 3.56601 45.2196 -13.3109 2.39499 44.9942 -14.3054 1.20632 44.7188 -15.2822 3.99702e-12 44.3932 1.20632 14.3054 44.7188 4.14694e-12 13.2957 45.047 -1.19119 12.271 45.3247 -2.36725 11.2311 45.5519 -3.52818 10.1761 45.7287 -4.67399 9.1059 45.8549 -5.80466 8.02062 45.9306 -6.9202 6.9202 45.9559 -8.02062 5.80466 45.9306 -9.1059 4.67399 45.8549 -10.1761 3.52818 45.7287 -11.2311 2.36725 45.5519 -12.271 1.19119 45.3247 -13.2957 2.9429e-12 45.047 -14.3054 -1.20632 44.7188 2.39499 13.3109 44.9942 1.19119 12.271 45.3247 3.90297e-12 11.2185 45.6043 -1.17858 10.1534 45.8331 -2.34456 9.07564 46.011 -3.49793 7.98531 46.1382 -4.63868 6.88238 46.2144 -5.76684 5.76684 46.2398 -6.88238 4.63868 46.2144 -7.98531 3.49793 46.1382 -9.07564 2.34456 46.011 -10.1534 1.17858 45.8331 -11.2185 2.09031e-12 45.6043 -12.271 -1.19119 45.3247 -13.3109 -2.39499 44.9942 3.56601 12.2987 45.2196 2.36725 11.2311 45.5519 1.17858 10.1534 45.8331 3.89186e-12 9.06555 46.0632 -1.1685 7.96766 46.2421 -2.32691 6.85968 46.3699 -3.47523 5.74162 46.4466 -4.61347 4.61347 46.4721 -5.74162 3.47523 46.4466 -6.85968 2.32691 46.3699 -7.96766 1.1685 46.2421 -9.06555 1.43332e-12 46.0632 -10.1534 -1.17858 45.8331 -11.2311 -2.36725 45.5519 -12.2987 -3.56601 45.2196 4.71938 11.2689 45.3949 3.52818 10.1761 45.7287 2.34456 9.07564 46.011 1.1685 7.96766 46.2421 4.10311e-12 6.85212 46.4218 -1.16093 5.72901 46.5502 -2.3143 4.59834 46.6272 -3.4601 3.4601 46.6528 -4.59834 2.3143 46.6272 -5.72901 1.16093 46.5502 -6.85212 9.77478e-13 46.4218 -7.96766 -1.1685 46.2421 -9.07564 -2.34456 46.011 -10.1761 -3.52818 45.7287 -11.2689 -4.71938 45.3949 5.85509 10.2214 45.5201 4.67399 9.1059 45.8549 3.49793 7.98531 46.1382 2.32691 6.85968 46.3699 1.16093 5.72901 46.5502 4.53832e-12 4.5933 46.6789 -1.15589 3.45254 46.7562 -2.30673 2.30673 46.7819 -3.45254 1.15589 46.7562 -4.5933 7.22289e-13 46.6789 -5.72901 -1.16093 46.5502 -6.85968 -2.32691 46.3699 -7.98531 -3.49793 46.1382 -9.1059 -4.67399 45.8549 -10.2214 -5.85509 45.5201 6.97316 9.15633 45.5953 5.80466 8.02062 45.9306 4.63868 6.88238 46.2144 3.47523 5.74162 46.4466 2.3143 4.59834 46.6272 1.15589 3.45254 46.7562 5.19021e-12 2.30421 46.8335 -1.15337 1.15337 46.8593 -2.30421 6.68523e-13 46.8335 -3.45254 -1.15589 46.7562 -4.59834 -2.3143 46.6272 -5.74162 -3.47523 46.4466 -6.88238 -4.63868 46.2144 -8.02062 -5.80466 45.9306 -9.15633 -6.97316 45.5953 8.07357 8.07357 45.6203 6.9202 6.9202 45.9559 5.76684 5.76684 46.2398 4.61347 4.61347 46.4721 3.4601 3.4601 46.6528 2.30673 2.30673 46.7819 1.15337 1.15337 46.8593 6.05633e-12 8.12373e-13 46.8852 -1.15337 -1.15337 46.8593 -2.30673 -2.30673 46.7819 -3.4601 -3.4601 46.6528 -4.61347 -4.61347 46.4721 -5.76684 -5.76684 46.2398 -6.9202 -6.9202 45.9559 -8.07357 -8.07357 45.6203 9.15633 6.97316 45.5953 8.02062 5.80466 45.9306 6.88238 4.63868 46.2144 5.74162 3.47523 46.4466 4.59834 2.3143 46.6272 3.45254 1.15589 46.7562 2.30421 1.21434e-12 46.8335 1.15337 -1.15337 46.8593 4.684e-12 -2.30421 46.8335 -1.15589 -3.45254 46.7562 -2.3143 -4.59834 46.6272 -3.47523 -5.74162 46.4466 -4.63868 -6.88238 46.2144 -5.80466 -8.02062 45.9306 -6.97316 -9.15633 45.5953 10.2214 5.85509 45.5201 9.1059 4.67399 45.8549 7.98531 3.49793 46.1382 6.85968 2.32691 46.3699 5.72901 1.16093 46.5502 4.5933 1.54455e-12 46.6789 3.45254 -1.15589 46.7562 2.30673 -2.30673 46.7819 1.15589 -3.45254 46.7562 3.2516e-12 -4.5933 46.6789 -1.16093 -5.72901 46.5502 -2.32691 -6.85968 46.3699 -3.49793 -7.98531 46.1382 -4.67399 -9.1059 45.8549 -5.85509 -10.2214 45.5201 11.2689 4.71938 45.3949 10.1761 3.52818 45.7287 9.07564 2.34456 46.011 7.96766 1.1685 46.2421 6.85212 1.80633e-12 46.4218 5.72901 -1.16093 46.5502 4.59834 -2.3143 46.6272 3.4601 -3.4601 46.6528 2.3143 -4.59834 46.6272 1.16093 -5.72901 46.5502 1.75329e-12 -6.85212 46.4218 -1.1685 -7.96766 46.2421 -2.34456 -9.07564 46.011 -3.52818 -10.1761 45.7287 -4.71938 -11.2689 45.3949 12.2987 3.56601 45.2196 11.2311 2.36725 45.5519 10.1534 1.17858 45.8331 9.06555 1.98947e-12 46.0632 7.96766 -1.1685 46.2421 6.85968 -2.32691 46.3699 5.74162 -3.47523 46.4466 4.61347 -4.61347 46.4721 3.47523 -5.74162 46.4466 2.32691 -6.85968 46.3699 1.1685 -7.96766 46.2421 1.81133e-13 -9.06555 46.0632 -1.17858 -10.1534 45.8331 -2.36725 -11.2311 45.5519 -3.56601 -12.2987 45.2196 13.3109 2.39499 44.9942 12.271 1.19119 45.3247 11.2185 2.09271e-12 45.6043 10.1534 -1.17858 45.8331 9.07564 -2.34456 46.011 7.98531 -3.49793 46.1382 6.88238 -4.63868 46.2144 5.76684 -5.76684 46.2398 4.63868 -6.88238 46.2144 3.49793 -7.98531 46.1382 2.34456 -9.07564 46.011 1.17858 -10.1534 45.8331 -1.46963e-12 -11.2185 45.6043 -1.19119 -12.271 45.3247 -2.39499 -13.3109 44.9942 14.3054 1.20632 44.7188 13.2957 2.10391e-12 45.047 12.271 -1.19119 45.3247 11.2311 -2.36725 45.5519 10.1761 -3.52818 45.7287 9.1059 -4.67399 45.8549 8.02062 -5.80466 45.9306 6.9202 -6.9202 45.9559 5.80466 -8.02062 45.9306 4.67399 -9.1059 45.8549 3.52818 -10.1761 45.7287 2.36725 -11.2311 45.5519 1.19119 -12.271 45.3247 -3.20982e-12 -13.2957 45.047 -1.20632 -14.3054 44.7188 15.2822 2.02549e-12 44.3932 14.3054 -1.20632 44.7188 13.3109 -2.39499 44.9942 12.2987 -3.56601 45.2196 11.2689 -4.71938 45.3949 10.2214 -5.85509 45.5201 9.15633 -6.97316 45.5953 8.07357 -8.07357 45.6203 6.97316 -9.15633 45.5953 5.85509 -10.2214 45.5201 4.71938 -11.2689 45.3949 3.56601 -12.2987 45.2196 2.39499 -13.3109 44.9942 1.20632 -14.3054 44.7188 -5.04419e-12 -15.2822 44.3932 3.95228e-12 14.2577 48.9355 -1.12612 13.347 49.3268 -2.23567 12.4197 49.6579 -3.32865 11.4759 49.9288 -4.40506 10.5155 50.1396 -5.46489 9.5385 50.2901 -6.50815 8.54496 50.3804 -7.53484 7.53484 50.4105 -8.54496 6.50815 50.3804 -9.5385 5.46489 50.2901 -10.5155 4.40506 50.1396 -11.4759 3.32865 49.9288 -12.4197 2.23567 49.6579 -13.347 1.12612 49.3268 -14.2577 1.85552e-12 48.9355 1.12612 13.347 49.3268 3.59634e-12 12.4055 49.7208 -1.11192 11.4498 50.0542 -2.20963 10.48 50.3269 -3.29314 9.49589 50.5391 -4.36244 8.49761 50.6906 -5.41754 7.48512 50.7815 -6.45844 6.45844 50.8118 -7.48512 5.41754 50.7815 -8.49761 4.36244 50.6906 -9.49589 3.29314 50.5391 -10.48 2.20963 50.3269 -11.4498 1.11192 50.0542 -12.4055 1.32593e-12 49.7208 -13.347 -1.12612 49.3268 2.23567 12.4197 49.6579 1.11192 11.4498 50.0542 3.48364e-12 10.4681 50.3894 -1.10008 9.47458 50.6638 -2.18832 8.4692 50.8771 -3.26473 7.45198 51.0295 -4.3293 6.42292 51.121 -5.38203 5.38203 51.1514 -6.42292 4.3293 51.121 -7.45198 3.26473 51.0295 -8.4692 2.18832 50.8771 -9.47458 1.10008 50.6638 -10.4681 9.07218e-13 50.3894 -11.4498 -1.11192 50.0542 -12.4197 -2.23567 49.6579 3.32865 11.4759 49.9288 2.20963 10.48 50.3269 1.10008 9.47458 50.6638 3.61638e-12 8.45973 50.9394 -1.09061 7.43541 51.1537 -2.17175 6.40162 51.3068 -3.24342 5.35835 51.3987 -4.30562 4.3