<?xml version="1.0"?> 
<VTKFile type="StructuredGrid" version="0.1"> 
<StructuredGrid WholeExtent="0 29 0 29 0 29"> 
<Piece Extent="0 29 0 29 0 29"> 
<PointData>
<DataArray type="Float32" Name="efield" format="ascii" NumberOfComponents="3"> 
0.982769 -12.9489 -4.42671 0.867755 -13.2735 -4.70751 0.744395 -13.598 -4.92247 0.612876 -13.9226 -5.07291 0.473347 -14.2472 -5.1599 0.325929 -14.5718 -5.18424 0.17072 -14.8964 -5.14653 0.00780089 -15.221 -5.04711 -0.16276 -15.5456 -4.8861 -0.340906 -15.8702 -4.66335 -0.526589 -16.1947 -4.37848 -0.719768 -16.5193 -4.03083 -0.920409 -16.8439 -3.61946 -1.12848 -17.1685 -3.14313 -1.34396 -17.4931 -2.60026 -1.31853 -18.5565 -2.06906 -1.06034 -20.3589 -1.72516 -0.82206 -22.1612 -1.55872 -0.605447 -23.9635 -1.58523 -0.412063 -25.7658 -1.82266 -0.243298 -27.5681 -2.29174 -0.100389 -29.3704 -3.01649 0.0155579 -31.1728 -4.0247 0.10355 -32.9751 -5.34865 0.162693 -34.7774 -7.02595 0.192182 -36.5797 -9.10055 0.191289 -38.382 -11.6241 0.159352 -40.1844 -14.6573 0.0957715 -41.9867 -18.2727 1.33737e-13 -43.789 -22.5564 1.38923 -12.5301 -4.38211 1.31464 -12.8427 -4.69011 1.2306 -13.155 -4.92949 1.13752 -13.467 -5.1017 1.03572 -13.7787 -5.20795 0.925481 -14.09 -5.24916 0.807043 -14.401 -5.22599 0.680598 -14.7116 -5.13886 0.546316 -15.0219 -4.98789 0.40434 -15.3318 -4.77294 0.254795 -15.6413 -4.49359 0.0977923 -15.9504 -4.14912 -0.0665722 -16.2591 -3.7385 -0.238213 -16.5674 -3.26036 -0.417053 -16.8753 -2.71293 -0.318331 -17.9492 -2.17535 0.0453919 -19.7867 -1.82321 0.384022 -21.6207 -1.64541 0.696265 -23.4512 -1.65738 0.980979 -25.2783 -1.87704 1.23715 -27.1021 -2.32519 1.46388 -28.9226 -3.026 1.66038 -30.7399 -4.00757 1.82592 -32.5541 -5.30271 1.95989 -34.3651 -6.9498 2.0617 -36.1731 -8.99394 2.13086 -37.978 -11.4884 2.16691 -39.78 -14.4964 2.16945 -41.5789 -18.0934 2.1381 -43.375 -22.3703 1.82117 -12.1368 -4.34071 1.77969 -12.4362 -4.67399 1.72839 -12.7352 -4.93601 1.66776 -13.0337 -5.12839 1.59822 -13.3317 -5.25246 1.5201 -13.629 -5.30927 1.43371 -13.9257 -5.29955 1.33928 -14.2218 -5.22377 1.23705 -14.5172 -5.0821 1.12721 -14.8119 -4.87441 1.00991 -15.1059 -4.60025 0.885316 -15.3991 -4.25887 0.753553 -15.6916 -3.84915 0.614744 -15.9834 -3.36959 0.468995 -16.2744 -2.81831 0.637242 -17.3511 -2.27491 1.10343 -19.2091 -1.91473 1.5405 -21.0602 -1.72583 1.94753 -22.9048 -1.72349 2.32372 -24.7428 -1.92555 2.66835 -26.5745 -2.35279 2.9808 -28.3998 -3.02944 3.26055 -30.219 -3.98382 3.5071 -32.032 -5.24912 3.72004 -33.8389 -6.86432 3.89902 -35.6398 -8.87549 4.0437 -37.4348 -11.3373 4.15383 -39.2239 -14.315 4.22916 -41.0072 -17.8871 4.26948 -42.7847 -22.1486 2.26935 -11.7597 -4.30249 2.25559 -12.0457 -4.65913 2.23207 -12.331 -4.94204 2.1993 -12.6157 -5.15299 2.1577 -12.8996 -5.29346 2.10765 -13.1827 -5.36459 2.04944 -13.4649 -5.36722 1.98336 -13.7461 -5.30187 1.90964 -14.0265 -5.16876 1.82849 -14.3058 -4.96777 1.74011 -14.5842 -4.69845 1.64466 -14.8615 -4.36002 1.5423 -15.1377 -3.95128 1.43316 -15.4129 -3.47065 1.31737 -15.687 -2.91611 1.55154 -16.7603 -2.36744 2.11687 -18.6262 -1.99961 2.65001 -20.4824 -1.80007 3.15034 -22.329 -1.78394 3.6173 -24.1662 -1.96894 4.05046 -25.9941 -2.37577 4.44941 -27.8129 -3.02867 4.81383 -29.6226 -3.95607 5.14342 -31.4233 -5.19142 5.43797 -33.2151 -6.7742 5.69727 -34.9982 -8.75124 5.92117 -36.7725 -11.1784 6.10955 -38.5381 -14.1228 6.26232 -40.2952 -17.6655 6.3794 -42.0437 -21.9053 2.72725 -11.3924 -4.26745 2.73713 -11.6649 -4.64553 2.73757 -11.9366 -4.94757 2.72903 -12.2075 -5.17551 2.71194 -12.4773 -5.33095 2.68664 -12.7462 -5.41515 2.65345 -13.0139 -5.42904 2.61263 -13.2804 -5.37321 2.56443 -13.5458 -5.24791 2.50908 -13.8098 -5.05306 2.44675 -14.0726 -4.78821 2.37763 -14.3341 -4.45254 2.30187 -14.5942 -4.04483 2.21963 -14.853 -3.56341 2.13103 -15.1104 -3.00612 2.42769 -16.1749 -2.45272 3.08871 -18.0382 -2.07771 3.71524 -19.889 -1.86815 4.30689 -21.7275 -1.83898 4.86336 -23.5538 -2.00775 5.38437 -25.3681 -2.39506 5.86972 -27.1705 -3.0251 6.31925 -28.9612 -3.92634 6.73283 -30.7401 -5.13241 7.1104 -32.5075 -6.68315 7.45189 -34.2634 -8.62602 7.75727 -36.0079 -11.0179 8.02657 -37.7411 -13.9274 8.2598 -39.463 -17.438 8.45701 -41.1738 -21.6521 3.19015 -11.03 -4.2356 3.22054 -11.2894 -4.63318 3.24192 -11.5478 -4.95259 3.25473 -11.805 -5.19594 3.25934 -12.0611 -5.36495 3.25609 -12.3159 -5.46098 3.24527 -12.5693 -5.48505 3.22715 -12.8213 -5.43782 3.20195 -13.0719 -5.3196 3.16989 -13.3209 -5.13032 3.13115 -13.5684 -4.86956 3.08592 -13.8142 -4.53647 3.03434 -14.0585 -4.12978 2.97657 -14.3011 -3.64777 2.91275 -14.542 -3.08819 3.26867 -15.5934 -2.53058 4.02185 -17.4451 -2.14894 4.73889 -19.2817 -1.93009 5.4196 -21.1033 -1.88877 6.06382 -22.9102 -2.04237 6.67147 -24.7024 -2.41135 7.24247 -26.4801 -3.0198 7.77681 -28.2435 -3.8962 8.2745 -29.9926 -5.07426 8.73556 -31.7276 -6.59409 9.16008 -33.4485 -8.50366 9.54813 -35.1555 -10.8607 9.89982 -36.8486 -13.7352 10.2153 -38.5279 -17.2126 10.4946 -40.1936 -21.3985 3.65459 -10.6692 -4.20693 3.70302 -10.9158 -4.62207 3.74295 -11.1612 -4.95712 3.77476 -11.4052 -5.2143 3.79879 -11.6478 -5.39548 3.81536 -11.8889 -5.50212 3.82472 -12.1283 -5.53531 3.82712 -12.3661 -5.49578 3.82278 -12.6021 -5.3839 3.81189 -12.8364 -5.19963 3.79464 -13.0689 -4.94255 3.77119 -13.2995 -4.61181 3.7417 -13.5282 -4.20612 3.7063 -13.755 -3.72369 3.66514 -13.9798 -3.1622 4.07728 -15.0143 -2.60089 4.9191 -16.8467 -2.21322 5.72366 -18.6614 -1.98589 6.49092 -20.4586 -1.93345 7.22088 -22.2386 -2.0731 7.91354 -24.0015 -2.42515 8.56897 -25.7475 -3.01359 9.18726 -27.4766 -3.86684 9.76852 -29.189 -5.01865 10.3129 -30.8848 -6.50934 10.8205 -32.5642 -8.38725 11.2915 -34.2271 -10.7108 11.7262 -35.8738 -13.5511 12.1247 -37.5043 -16.9956 12.4872 -39.1188 -21.1525 4.11795 -10.3073 -4.18145 4.18247 -10.5416 -4.61221 4.23902 -10.7744 -4.96114 4.28794 -11.0056 -5.2306 4.32953 -11.2351 -5.42256 4.36406 -11.4628 -5.53858 4.39177 -11.6886 -5.57984 4.41288 -11.9125 -5.54714 4.42758 -12.1344 -5.44086 4.43607 -12.3543 -5.26103 4.4385 -12.572 -5.00723 4.43504 -12.7877 -4.67861 4.42582 -13.0012 -4.27386 4.41098 -13.2126 -3.79115 4.39066 -13.4218 -3.22808 4.85618 -14.4362 -2.66354 5.78315 -16.2424 -2.27049 6.6722 -18.0287 -2.03555 7.52339 -19.7952 -1.97308 8.33683 -21.542 -2.10013 9.11262 -23.2693 -2.43684 9.85092 -24.9774 -3.00707 10.5519 -26.6663 -3.83917 11.2157 -28.3362 -4.9669 11.8427 -29.9871 -6.43069 12.4329 -31.6193 -8.27919 12.9866 -33.2328 -10.5714 13.5041 -34.8278 -13.3794 13.9857 -36.4043 -16.7922 14.4316 -37.9624 -20.9204 4.57826 -9.94238 -4.15915 4.65732 -10.1648 -4.60359 4.72895 -10.3855 -4.96466 4.79343 -10.6043 -5.24484 4.85105 -10.821 -5.44621 4.90201 -11.0357 -5.57042 4.94655 -11.2483 -5.61871 4.98485 -11.4586 -5.59194 5.01709 -11.6667 -5.49056 5.04343 -11.8725 -5.3146 5.06402 -12.076 -5.06367 5.07901 -12.2771 -4.73693 5.08853 -12.4758 -4.33304 5.0927 -12.6721 -3.85013 5.09163 -12.866 -3.28577 5.60789 -13.8576 -2.71847 6.61659 -15.6319 -2.32069 7.58709 -17.384 -2.07904 8.51953 -19.114 -2.00773 9.41407 -20.8222 -2.12361 10.2709 -22.5087 -2.44669 11.0903 -24.1736 -3.0007 11.8724 -25.8172 -3.81389 12.6175 -27.4395 -4.92 13.3259 -29.0408 -6.35954 13.9978 -30.6211 -8.18139 14.6335 -32.1806 -10.445 15.2333 -33.7194 -13.2233 15.7975 -35.2376 -16.6066 16.3264 -36.7353 -20.7077 5.03403 -9.57289 -4.14004 5.12638 -9.78393 -4.5962 5.21184 -9.99285 -4.96767 5.29066 -10.1996 -5.25703 5.36304 -10.404 -5.46645 5.42919 -10.606 -5.59765 5.4893 -10.8057 -5.65194 5.54353 -11.0028 -5.63024 5.59204 -11.1975 -5.53304 5.63496 -11.3895 -5.36039 5.67244 -11.5791 -5.11192 5.7046 -11.7659 -4.7868 5.73155 -11.9502 -4.38367 5.75341 -12.1318 -3.90065 5.77029 -12.3107 -3.33525 6.33481 -13.2771 -2.76562 7.42191 -15.0144 -2.36377 8.47084 -16.7273 -2.11635 9.48179 -18.416 -2.0374 10.455 -20.0807 -2.14363 11.3907 -21.7216 -2.45489 12.2892 -23.3389 -2.9948 13.1507 -24.9328 -3.7915 13.9755 -26.5033 -4.87871 14.764 -28.0508 -6.29697 15.5163 -29.5752 -8.09533 16.2329 -31.0769 -10.3336 16.9141 -32.5558 -13.0854 17.5602 -34.0122 -16.4421 18.1714 -35.4462 -20.5184 5.4841 -9.19772 -4.12412 5.58878 -9.39772 -4.59005 5.68709 -9.59526 -4.97018 5.77922 -9.79027 -5.26718 5.86537 -9.98266 -5.48329 5.9457 -10.1724 -5.6203 6.02036 -10.3594 -5.67958 6.08949 -10.5437 -5.66209 6.15322 -10.7252 -5.56835 6.21168 -10.9039 -5.39845 6.26499 -11.0797 -5.15204 6.31324 -11.2527 -4.82828 6.35655 -11.4228 -4.42581 6.39502 -11.5901 -3.94272 6.42873 -11.7544 -3.37649 7.03923 -12.6933 -2.80495 8.20147 -14.389 -2.39972 9.32584 -16.0582 -2.14747 10.4126 -17.7013 -2.06213 11.462 -19.3184 -2.16026 12.4743 -20.9097 -2.46158 13.4498 -22.4754 -2.98961 14.3888 -24.0157 -3.77239 15.2917 -25.5309 -4.8436 16.1587 -27.0209 -6.24379 16.9901 -28.4862 -8.02214 17.7863 -29.9267 -10.2388 18.5477 -31.3427 -12.9678 19.2746 -32.7344 -16.3014 19.9672 -34.1018 -20.3561 5.92761 -8.81598 -4.11138 6.04386 -9.00528 -4.58514 6.15424 -9.19175 -4.97219 6.25892 -9.37534 -5.2753 6.35803 -9.556 -5.49675 6.45172 -9.73369 -5.63839 6.54011 -9.90837 -5.70165 6.62332 -10.08 -5.68752 6.70144 -10.2486 -5.59654 6.77459 -10.4141 -5.42885 6.84287 -10.5766 -5.18408 6.90636 -10.7359 -4.8614 6.96515 -10.8922 -4.45947 7.01933 -11.0453 -3.97635 7.06898 -11.1953 -3.40949 7.72331 -12.1048 -2.83644 8.95751 -13.7547 -2.4285 10.1544 -15.3764 -2.17238 11.3142 -16.9699 -2.08191 12.4373 -18.5356 -2.17352 13.5239 -20.0737 -2.46685 14.5743 -21.5844 -2.98529 15.5889 -23.0679 -3.75684 16.568 -24.5243 -4.81509 17.5119 -25.954 -6.20061 18.4209 -27.3571 -7.96268 19.2953 -28.7338 -10.1616 20.1356 -30.0843 -12.8719 20.942 -31.4088 -16.1867 21.715 -32.7074 -20.2233 6.36391 -8.42703 -4.10182 6.49116 -8.60589 -4.58145 6.61304 -8.78154 -4.9737 6.72966 -8.95394 -5.28138 6.84113 -9.12307 -5.50683 6.94755 -9.28891 -5.65195 7.04904 -9.45144 -5.71818 7.14567 -9.61065 -5.70656 7.23753 -9.76654 -5.61766 7.32471 -9.91909 -5.45161 7.40728 -10.0683 -5.20807 7.48532 -10.2142 -4.88621 7.55891 -10.3568 -4.48469 7.6281 -10.496 -4.00156 7.69298 -10.6319 -3.43424 8.38913 -11.5102 -2.86007 9.69216 -13.1106 -2.45009 10.9586 -14.6809 -2.19108 12.1888 -16.2214 -2.09674 13.3831 -17.7324 -2.18346 14.5416 -19.214 -2.47076 15.6648 -20.6665 -2.98197 16.753 -22.0902 -3.74502 17.8064 -23.4853 -4.79347 18.8255 -24.8519 -6.16788 19.8104 -26.1903 -7.91758 20.7617 -27.5008 -10.103 21.6794 -28.7836 -12.7991 22.5642 -30.0388 -16.0993 23.4161 -31.2667 -20.122 6.79256 -8.03043 -4.09545 6.93041 -8.19902 -4.57899 7.06336 -8.364 -4.9747 7.19148 -8.52536 -5.28543 7.31485 -8.68309 -5.51354 7.43355 -8.83721 -5.66097 7.54765 -8.98771 -5.72919 7.65723 -9.13459 -5.71924 7.76233 -9.27787 -5.63172 7.86304 -9.41756 -5.46676 7.9594 -9.55366 -5.22404 8.05147 -9.6862 -4.90274 8.13932 -9.81518 -4.50149 8.22301 -9.94063 -4.01835 8.30257 -10.0626 -3.45074 9.03865 -10.9078 -2.87583 10.4074 -12.4552 -2.4645 11.7406 -13.9709 -2.20355 13.0385 -15.4551 -2.10664 14.3013 -16.9082 -2.19008 15.5295 -18.3305 -2.47335 16.7233 -19.7221 -2.97972 17.883 -21.0833 -3.73708 19.0088 -22.4143 -4.77895 20.1013 -23.7155 -6.1459 21.1605 -24.9871 -7.88728 22.1869 -26.2293 -10.0637 23.1808 -27.4423 -12.7501 24.1425 -28.6264 -16.0405 25.0723 -29.7819 -20.0537 7.21327 -7.62589 -4.09227 7.36146 -7.78429 -4.57776 7.50519 -7.93866 -4.9752 7.64452 -8.08903 -5.28745 7.77949 -8.23542 -5.5169 7.91014 -8.37784 -5.66548 8.03654 -8.51633 -5.7347 8.15872 -8.6509 -5.72558 8.27672 -8.78159 -5.63874 8.3906 -8.90842 -5.47433 8.50039 -9.03142 -5.23202 8.60613 -9.15061 -4.911 8.70788 -9.26603 -4.50988 8.80568 -9.3777 -4.02675 8.89955 -9.48565 -3.45899 9.67376 -10.2963 -2.88371 11.1052 -11.7872 -2.4717 12.5022 -13.2451 -2.20978 13.865 -14.6701 -2.11158 15.1939 -16.0625 -2.19339 16.4893 -17.4225 -2.47464 17.7514 -18.7506 -2.97859 18.9804 -20.0469 -3.73309 20.1768 -21.3117 -4.77166 21.3408 -22.5452 -6.13486 22.4726 -23.7479 -7.87207 23.5726 -24.9199 -10.0439 24.6411 -26.0614 -12.7255 25.6784 -27.1729 -16.0109 26.6847 -28.2545 -20.0194 7.62589 -7.21327 -4.09227 7.78429 -7.36146 -4.57776 7.93866 -7.50519 -4.9752 8.08903 -7.64452 -5.28745 8.23542 -7.77949 -5.5169 8.37784 -7.91014 -5.66548 8.51633 -8.03654 -5.7347 8.6509 -8.15872 -5.72558 8.78159 -8.27672 -5.63874 8.90842 -8.3906 -5.47433 9.03142 -8.50039 -5.23202 9.15061 -8.60613 -4.911 9.26603 -8.70788 -4.50988 9.3777 -8.80568 -4.02675 9.48565 -8.89955 -3.45899 10.2963 -9.67376 -2.88371 11.7872 -11.1052 -2.4717 13.2451 -12.5022 -2.20978 14.6701 -13.865 -2.11158 16.0625 -15.1939 -2.19339 17.4225 -16.4893 -2.47464 18.7506 -17.7514 -2.97859 20.0469 -18.9804 -3.73309 21.3117 -20.1768 -4.77166 22.5452 -21.3408 -6.13486 23.7479 -22.4726 -7.87207 24.9199 -23.5726 -10.0439 26.0614 -24.6411 -12.7255 27.1729 -25.6784 -16.0109 28.2545 -26.6847 -20.0194 8.03043 -6.79256 -4.09545 8.19902 -6.93041 -4.57899 8.364 -7.06336 -4.9747 8.52536 -7.19148 -5.28543 8.68309 -7.31485 -5.51354 8.83721 -7.43355 -5.66097 8.98771 -7.54765 -5.72919 9.13459 -7.65723 -5.71924 9.27787 -7.76233 -5.63172 9.41756 -7.86304 -5.46676 9.55366 -7.9594 -5.22404 9.6862 -8.05147 -4.90274 9.81518 -8.13932 -4.50149 9.94063 -8.22301 -4.01835 10.0626 -8.30257 -3.45074 10.9078 -9.03865 -2.87583 12.4552 -10.4074 -2.4645 13.9709 -11.7406 -2.20355 15.4551 -13.0385 -2.10664 16.9082 -14.3013 -2.19008 18.3305 -15.5295 -2.47335 19.7221 -16.7233 -2.97972 21.0833 -17.883 -3.73708 22.4143 -19.0088 -4.77895 23.7155 -20.1013 -6.1459 24.9871 -21.1605 -7.88728 26.2293 -22.1869 -10.0637 27.4423 -23.1808 -12.7501 28.6264 -24.1425 -16.0405 29.7819 -25.0723 -20.0537 8.42703 -6.36391 -4.10182 8.60589 -6.49116 -4.58145 8.78154 -6.61304 -4.9737 8.95394 -6.72966 -5.28138 9.12307 -6.84113 -5.50683 9.28891 -6.94755 -5.65195 9.45144 -7.04904 -5.71818 9.61065 -7.14567 -5.70656 9.76654 -7.23753 -5.61766 9.91909 -7.32471 -5.45161 10.0683 -7.40728 -5.20807 10.2142 -7.48532 -4.88621 10.3568 -7.55891 -4.48469 10.496 -7.6281 -4.00156 10.6319 -7.69298 -3.43424 11.5102 -8.38913 -2.86007 13.1106 -9.69216 -2.45009 14.6809 -10.9586 -2.19108 16.2214 -12.1888 -2.09674 17.7324 -13.3831 -2.18346 19.214 -14.5416 -2.47076 20.6665 -15.6648 -2.98197 22.0902 -16.753 -3.74502 23.4853 -17.8064 -4.79347 24.8519 -18.8255 -6.16788 26.1903 -19.8104 -7.91758 27.5008 -20.7617 -10.103 28.7836 -21.6794 -12.7991 30.0388 -22.5642 -16.0993 31.2667 -23.4161 -20.122 8.81598 -5.92761 -4.11138 9.00528 -6.04386 -4.58514 9.19175 -6.15424 -4.97219 9.37534 -6.25892 -5.2753 9.556 -6.35803 -5.49675 9.73369 -6.45172 -5.63839 9.90837 -6.54011 -5.70165 10.08 -6.62332 -5.68752 10.2486 -6.70144 -5.59654 10.4141 -6.77459 -5.42885 10.5766 -6.84287 -5.18408 10.7359 -6.90636 -4.8614 10.8922 -6.96515 -4.45947 11.0453 -7.01933 -3.97635 11.1953 -7.06898 -3.40949 12.1048 -7.72331 -2.83644 13.7547 -8.95751 -2.4285 15.3764 -10.1544 -2.17238 16.9699 -11.3142 -2.08191 18.5356 -12.4373 -2.17352 20.0737 -13.5239 -2.46685 21.5844 -14.5743 -2.98529 23.0679 -15.5889 -3.75684 24.5243 -16.568 -4.81509 25.954 -17.5119 -6.20061 27.3571 -18.4209 -7.96268 28.7338 -19.2953 -10.1616 30.0843 -20.1356 -12.8719 31.4088 -20.942 -16.1867 32.7074 -21.715 -20.2233 9.19772 -5.4841 -4.12412 9.39772 -5.58878 -4.59005 9.59526 -5.68709 -4.97018 9.79027 -5.77922 -5.26718 9.98266 -5.86537 -5.48329 10.1724 -5.9457 -5.6203 10.3594 -6.02036 -5.67958 10.5437 -6.08949 -5.66209 10.7252 -6.15322 -5.56835 10.9039 -6.21168 -5.39845 11.0797 -6.26499 -5.15204 11.2527 -6.31324 -4.82828 11.4228 -6.35655 -4.42581 11.5901 -6.39502 -3.94272 11.7544 -6.42873 -3.37649 12.6933 -7.03923 -2.80495 14.389 -8.20147 -2.39972 16.0582 -9.32584 -2.14747 17.7013 -10.4126 -2.06213 19.3184 -11.462 -2.16026 20.9097 -12.4743 -2.46158 22.4754 -13.4498 -2.98961 24.0157 -14.3888 -3.77239 25.5309 -15.2917 -4.8436 27.0209 -16.1587 -6.24379 28.4862 -16.9901 -8.02214 29.9267 -17.7863 -10.2388 31.3427 -18.5477 -12.9678 32.7344 -19.2746 -16.3014 34.1018 -19.9672 -20.3561 9.57289 -5.03403 -4.14004 9.78393 -5.12638 -4.5962 9.99285 -5.21184 -4.96767 10.1996 -5.29066 -5.25703 10.404 -5.36304 -5.46645 10.606 -5.42919 -5.59765 10.8057 -5.4893 -5.65194 11.0028 -5.54353 -5.63024 11.1975 -5.59204 -5.53304 11.3895 -5.63496 -5.36039 11.5791 -5.67244 -5.11192 11.7659 -5.7046 -4.7868 11.9502 -5.73155 -4.38367 12.1318 -5.75341 -3.90065 12.3107 -5.77029 -3.33525 13.2771 -6.33481 -2.76562 15.0144 -7.42191 -2.36377 16.7273 -8.47084 -2.11635 18.416 -9.48179 -2.0374 20.0807 -10.455 -2.14363 21.7216 -11.3907 -2.45489 23.3389 -12.2892 -2.9948 24.9328 -13.1507 -3.7915 26.5033 -13.9755 -4.87871 28.0508 -14.764 -6.29697 29.5752 -15.5163 -8.09533 31.0769 -16.2329 -10.3336 32.5558 -16.9141 -13.0854 34.0122 -17.5602 -16.4421 35.4462 -18.1714 -20.5184 9.94238 -4.57826 -4.15915 10.1648 -4.65732 -4.60359 10.3855 -4.72895 -4.96466 10.6043 -4.79343 -5.24484 10.821 -4.85105 -5.44621 11.0357 -4.90201 -5.57042 11.2483 -4.94655 -5.61871 11.4586 -4.98485 -5.59194 11.6667 -5.01709 -5.49056 11.8725 -5.04343 -5.3146 12.076 -5.06402 -5.06367 12.2771 -5.07901 -4.73693 12.4758 -5.08853 -4.33304 12.6721 -5.0927 -3.85013 12.866 -5.09163 -3.28577 13.8576 -5.60789 -2.71847 15.6319 -6.61659 -2.32069 17.384 -7.58709 -2.07904 19.114 -8.51953 -2.00773 20.8222 -9.41407 -2.12361 22.5087 -10.2709 -2.44669 24.1736 -11.0903 -3.0007 25.8172 -11.8724 -3.81389 27.4395 -12.6175 -4.92 29.0408 -13.3259 -6.35954 30.6211 -13.9978 -8.18139 32.1806 -14.6335 -10.445 33.7194 -15.2333 -13.2233 35.2376 -15.7975 -16.6066 36.7353 -16.3264 -20.7077 10.3073 -4.11795 -4.18145 10.5416 -4.18247 -4.61221 10.7744 -4.23902 -4.96114 11.0056 -4.28794 -5.2306 11.2351 -4.32953 -5.42256 11.4628 -4.36406 -5.53858 11.6886 -4.39177 -5.57984 11.9125 -4.41288 -5.54714 12.1344 -4.42758 -5.44086 12.3543 -4.43607 -5.26103 12.572 -4.4385 -5.00723 12.7877 -4.43504 -4.67861 13.0012 -4.42582 -4.27386 13.2126 -4.41098 -3.79115 13.4218 -4.39066 -3.22808 14.4362 -4.85618 -2.66354 16.2424 -5.78315 -2.27049 18.0287 -6.6722 -2.03555 19.7952 -7.52339 -1.97308 21.542 -8.33683 -2.10013 23.2693 -9.11262 -2.43684 24.9774 -9.85092 -3.00707 26.6663 -10.5519 -3.83917 28.3362 -11.2157 -4.9669 29.9871 -11.8427 -6.43069 31.6193 -12.4329 -8.27919 33.2328 -12.9866 -10.5714 34.8278 -13.5041 -13.3794 36.4043 -13.9857 -16.7922 37.9624 -14.4316 -20.9204 10.6692 -3.65459 -4.20693 10.9158 -3.70302 -4.62207 11.1612 -3.74295 -4.95712 11.4052 -3.77476 -5.2143 11.6478 -3.79879 -5.39548 11.8889 -3.81536 -5.50212 12.1283 -3.82472 -5.53531 12.3661 -3.82712 -5.49578 12.6021 -3.82278 -5.3839 12.8364 -3.81189 -5.19963 13.0689 -3.79464 -4.94255 13.2995 -3.77119 -4.61181 13.5282 -3.7417 -4.20612 13.755 -3.7063 -3.72369 13.9798 -3.66514 -3.1622 15.0143 -4.07728 -2.60089 16.8467 -4.9191 -2.21322 18.6614 -5.72366 -1.98589 20.4586 -6.49092 -1.93345 22.2386 -7.22088 -2.0731 24.0015 -7.91354 -2.42515 25.7475 -8.56897 -3.01359 27.4766 -9.18726 -3.86684 29.189 -9.76852 -5.01865 30.8848 -10.3129 -6.50934 32.5642 -10.8205 -8.38725 34.2271 -11.2915 -10.7108 35.8738 -11.7262 -13.5511 37.5043 -12.1247 -16.9956 39.1188 -12.4872 -21.1525 11.03 -3.19015 -4.2356 11.2894 -3.22054 -4.63318 11.5478 -3.24192 -4.95259 11.805 -3.25473 -5.19594 12.0611 -3.25934 -5.36495 12.3159 -3.25609 -5.46098 12.5693 -3.24527 -5.48505 12.8213 -3.22715 -5.43782 13.0719 -3.20195 -5.3196 13.3209 -3.16989 -5.13032 13.5684 -3.13115 -4.86956 13.8142 -3.08592 -4.53647 14.0585 -3.03434 -4.12978 14.3011 -2.97657 -3.64777 14.542 -2.91275 -3.08819 15.5934 -3.26867 -2.53058 17.4451 -4.02185 -2.14894 19.2817 -4.73889 -1.93009 21.1033 -5.4196 -1.88877 22.9102 -6.06382 -2.04237 24.7024 -6.67147 -2.41135 26.4801 -7.24247 -3.0198 28.2435 -7.77681 -3.8962 29.9926 -8.2745 -5.07426 31.7276 -8.73556 -6.59409 33.4485 -9.16008 -8.50366 35.1555 -9.54813 -10.8607 36.8486 -9.89982 -13.7352 38.5279 -10.2153 -17.2126 40.1936 -10.4946 -21.3985 11.3924 -2.72725 -4.26745 11.6649 -2.73713 -4.64553 11.9366 -2.73757 -4.94757 12.2075 -2.72903 -5.17551 12.4773 -2.71194 -5.33095 12.7462 -2.68664 -5.41515 13.0139 -2.65345 -5.42904 13.2804 -2.61263 -5.37321 13.5458 -2.56443 -5.24791 13.8098 -2.50908 -5.05306 14.0726 -2.44675 -4.78821 14.3341 -2.37763 -4.45254 14.5942 -2.30187 -4.04483 14.853 -2.21963 -3.56341 15.1104 -2.13103 -3.00612 16.1749 -2.42769 -2.45272 18.0382 -3.08871 -2.07771 19.889 -3.71524 -1.86815 21.7275 -4.30689 -1.83898 23.5538 -4.86336 -2.00775 25.3681 -5.38437 -2.39506 27.1705 -5.86972 -3.0251 28.9612 -6.31925 -3.92634 30.7401 -6.73283 -5.13241 32.5075 -7.1104 -6.68315 34.2634 -7.45189 -8.62602 36.0079 -7.75727 -11.0179 37.7411 -8.02657 -13.9274 39.463 -8.2598 -17.438 41.1738 -8.45701 -21.6521 11.7597 -2.26935 -4.30249 12.0457 -2.25559 -4.65913 12.331 -2.23207 -4.94204 12.6157 -2.1993 -5.15299 12.8996 -2.1577 -5.29346 13.1827 -2.10765 -5.36459 13.4649 -2.04944 -5.36722 13.7461 -1.98336 -5.30187 14.0265 -1.90964 -5.16876 14.3058 -1.82849 -4.96777 14.5842 -1.74011 -4.69845 14.8615 -1.64466 -4.36002 15.1377 -1.5423 -3.95128 15.4129 -1.43316 -3.47065 15.687 -1.31737 -2.91611 16.7603 -1.55154 -2.36744 18.6262 -2.11687 -1.99961 20.4824 -2.65001 -1.80007 22.329 -3.15034 -1.78394 24.1662 -3.6173 -1.96894 25.9941 -4.05046 -2.37577 27.8129 -4.44941 -3.02867 29.6226 -4.81383 -3.95607 31.4233 -5.14342 -5.19142 33.2151 -5.43797 -6.7742 34.9982 -5.69727 -8.75124 36.7725 -5.92117 -11.1784 38.5381 -6.10955 -14.1228 40.2952 -6.26232 -17.6655 42.0437 -6.3794 -21.9053 12.1368 -1.82117 -4.34071 12.4362 -1.77969 -4.67399 12.7352 -1.72839 -4.93601 13.0337 -1.66776 -5.12839 13.3317 -1.59822 -5.25246 13.629 -1.5201 -5.30927 13.9257 -1.43371 -5.29955 14.2218 -1.33928 -5.22377 14.5172 -1.23705 -5.0821 14.8119 -1.12721 -4.87441 15.1059 -1.00991 -4.60025 15.3991 -0.885316 -4.25887 15.6916 -0.753553 -3.84915 15.9834 -0.614744 -3.36959 16.2744 -0.468995 -2.81831 17.3511 -0.637242 -2.27491 19.2091 -1.10343 -1.91473 21.0602 -1.5405 -1.72583 22.9048 -1.94753 -1.72349 24.7428 -2.32372 -1.92555 26.5745 -2.66835 -2.35279 28.3998 -2.9808 -3.02944 30.219 -3.26055 -3.98382 32.032 -3.5071 -5.24912 33.8389 -3.72004 -6.86432 35.6398 -3.89902 -8.87549 37.4348 -4.0437 -11.3373 39.2239 -4.15383 -14.315 41.0072 -4.22916 -17.8871 42.7847 -4.26948 -22.1486 12.5301 -1.38923 -4.38211 12.8427 -1.31464 -4.69011 13.155 -1.2306 -4.92949 13.467 -1.13752 -5.1017 13.7787 -1.03572 -5.20795 14.09 -0.925481 -5.24916 14.401 -0.807043 -5.22599 14.7116 -0.680598 -5.13886 15.0219 -0.546316 -4.98789 15.3318 -0.40434 -4.77294 15.6413 -0.254795 -4.49359 15.9504 -0.0977923 -4.14912 16.2591 0.0665722 -3.7385 16.5674 0.238213 -3.26036 16.8753 0.417053 -2.71293 17.9492 0.318331 -2.17535 19.7867 -0.0453919 -1.82321 21.6207 -0.384022 -1.64541 23.4512 -0.696265 -1.65738 25.2783 -0.980979 -1.87704 27.1021 -1.23715 -2.32519 28.9226 -1.46388 -3.026 30.7399 -1.66038 -4.00757 32.5541 -1.82592 -5.30271 34.3651 -1.95989 -6.9498 36.1731 -2.0617 -8.99394 37.978 -2.13086 -11.4884 39.78 -2.16691 -14.4964 41.5789 -2.16945 -18.0934 43.375 -2.1381 -22.3703 12.9489 -0.982769 -4.42671 13.2735 -0.867755 -4.70751 13.598 -0.744395 -4.92247 13.9226 -0.612876 -5.07291 14.2472 -0.473347 -5.1599 14.5718 -0.325929 -5.18424 14.8964 -0.17072 -5.14653 15.221 -0.00780089 -5.04711 15.5456 0.16276 -4.8861 15.8702 0.340906 -4.66335 16.1947 0.526589 -4.37848 16.5193 0.719768 -4.03083 16.8439 0.920409 -3.61946 17.1685 1.12848 -3.14313 17.4931 1.34396 -2.60026 18.5565 1.31853 -2.06906 20.3589 1.06034 -1.72516 22.1612 0.82206 -1.55872 23.9635 0.605447 -1.58523 25.7658 0.412063 -1.82266 27.5681 0.243298 -2.29174 29.3704 0.100389 -3.01649 31.1728 -0.0155579 -4.0247 32.9751 -0.10355 -5.34865 34.7774 -0.162693 -7.02595 36.5797 -0.192182 -9.10055 38.382 -0.191289 -11.6241 40.1844 -0.159352 -14.6573 41.9867 -0.0957715 -18.2727 43.789 -1.33737e-13 -22.5564 -0.549406 -9.83442 -18.0483 -0.376579 -10.5126 -18.0356 -0.235472 -11.1828 -18.0492 -0.12417 -11.8433 -18.0887 -0.0412139 -12.4927 -18.1537 0.0145312 -13.1295 -18.2439 0.0439717 -13.7523 -18.3589 0.0478525 -14.3597 -18.4985 0.0268054 -14.9503 -18.6624 -0.018615 -15.5229 -18.8502 -0.087905 -16.0761 -19.0619 -0.180592 -16.6088 -19.2972 -0.296218 -17.1198 -19.556 -0.434331 -17.6079 -19.8382 -0.594473 -18.072 -20.1438 -0.733864 -18.602 -20.506 -0.805871 -19.1948 -20.9168 -0.842611 -19.7582 -21.3403 -0.849678 -20.2912 -21.7763 -0.831936 -20.7932 -22.2249 -0.793622 -21.2634 -22.686 -0.73843 -21.7012 -23.1595 -0.66958 -22.1058 -23.6456 -0.589882 -22.4767 -24.1445 -0.501778 -22.8133 -24.6563 -0.407392 -23.1148 -25.1815 -0.308556 -23.3808 -25.7205 -0.20685 -23.6106 -26.2739 -0.10362 -23.8036 -26.8425 4.68984e-14 -23.9591 -27.4272 -0.237215 -9.43049 -17.9916 -0.0199471 -10.1014 -17.9805 0.165912 -10.7642 -17.9935 0.322033 -11.4174 -18.0302 0.449711 -12.0592 -18.0902 0.54997 -12.6883 -18.1732 0.62364 -13.303 -18.2789 0.671414 -13.902 -18.407 0.693887 -14.4839 -18.5573 0.691588 -15.0474 -18.7296 0.665002 -15.5913 -18.9238 0.61459 -16.1142 -19.1398 0.540797 -16.6151 -19.3776 0.44407 -17.0927 -19.6372 0.324859 -17.5459 -19.9186 0.248507 -18.1155 -20.2741 0.252157 -18.7936 -20.6977 0.278865 -19.4352 -21.1351 0.323991 -20.0398 -21.5864 0.3835 -20.6066 -22.0518 0.45388 -21.1351 -22.5314 0.532074 -21.6247 -23.0255 0.615429 -22.0748 -23.5346 0.701646 -22.4846 -24.0591 0.78874 -22.8536 -24.5997 0.875007 -23.1811 -25.1572 0.958995 -23.4664 -25.7325 1.03948 -23.7088 -26.3268 1.11545 -23.9076 -26.9415 1.18609 -24.0618 -27.5782 0.095996 -9.04757 -17.9389 0.351706 -9.70979 -17.9306 0.576803 -10.3639 -17.9443 0.772669 -11.0081 -17.9796 0.940387 -11.6409 -18.0362 1.08082 -12.2605 -18.1138 1.19469 -12.8656 -18.212 1.28259 -13.4547 -18.3307 1.34505 -14.0264 -18.4697 1.38253 -14.5794 -18.6287 1.39547 -15.1124 -18.8079 1.3843 -15.6242 -19.007 1.34942 -16.1135 -19.2263 1.29125 -16.5794 -19.4658 1.21022 -17.0205 -19.7256 1.19451 -17.6208 -20.0738 1.27285 -18.3683 -20.5054 1.36333 -19.0736 -20.9515 1.46212 -19.7363 -21.4122 1.56586 -20.3557 -21.8879 1.67165 -20.9313 -22.3791 1.77696 -21.4625 -22.8864 1.87963 -21.9486 -23.4104 1.97778 -22.389 -23.952 2.0698 -22.7831 -24.5122 2.15435 -23.1301 -25.0924 2.23028 -23.4292 -25.6939 2.29667 -23.6796 -26.3184 2.35277 -23.8803 -26.9682 2.39799 -24.0304 -27.6455 0.44401 -8.67946 -17.8903 0.733553 -9.3322 -17.8855 0.993535 -9.97662 -17.9009 1.22504 -10.6109 -17.936 1.42893 -11.2335 -17.9905 1.60589 -11.8426 -18.0641 1.75651 -12.4369 -18.1565 1.88126 -13.0149 -18.2675 1.98058 -13.5752 -18.397 2.05486 -14.1164 -18.5449 2.10448 -14.6374 -18.711 2.1298 -15.1369 -18.8956 2.13117 -15.6137 -19.0986 2.10896 -16.0667 -19.3204 2.06355 -16.4948 -19.5611 2.10601 -17.118 -19.9015 2.25755 -17.9209 -20.3377 2.4115 -18.6769 -20.7884 2.56464 -19.3857 -21.254 2.71422 -20.0466 -21.7352 2.85782 -20.6592 -22.2326 2.99338 -21.2227 -22.7471 3.11911 -21.7366 -23.2796 3.23349 -22.2002 -23.8315 3.33524 -22.6128 -24.4041 3.42328 -22.9735 -24.9991 3.49672 -23.2816 -25.6186 3.55488 -23.5359 -26.2648 3.59719 -23.7356 -26.9405 3.62326 -23.8792 -27.6487 0.802289 -8.32161 -17.8458 1.12202 -8.9644 -17.845 1.41336 -9.59851 -17.8627 1.67712 -10.2222 -17.8985 1.91394 -10.8337 -17.9519 2.12432 -11.4315 -18.0228 2.30869 -12.0141 -18.1107 2.46743 -12.5801 -18.2156 2.60086 -13.128 -18.3372 2.70929 -13.6566 -18.4756 2.79301 -14.1647 -18.6307 2.85232 -14.651 -18.8027 2.8875 -15.1144 -18.9916 2.89886 -15.5537 -19.1978 2.88674 -15.9679 -19.4217 2.98483 -16.607 -19.7542 3.20769 -17.4528 -20.1923 3.42423 -18.248 -20.6446 3.6318 -18.9921 -21.1119 3.8281 -19.6847 -21.5947 4.01114 -20.3251 -22.0942 4.17921 -20.9128 -22.6114 4.33085 -21.447 -23.1476 4.46483 -21.9271 -23.7045 4.58011 -22.3523 -24.2837 4.67584 -22.7218 -24.8876 4.75134 -23.0345 -25.5184 4.80606 -23.2894 -26.1792 4.8396 -23.4854 -26.8733 4.85168 -23.6209 -27.6046 1.16746 -7.97065 -17.8053 1.51442 -8.60317 -17.8087 1.83422 -9.22656 -17.8292 2.12739 -9.83905 -17.8663 2.39436 -10.439 -17.9196 2.63548 -11.0248 -17.9886 2.85102 -11.595 -18.0732 3.04123 -12.1482 -18.1732 3.20633 -12.6831 -18.2884 3.34653 -13.1983 -18.4189 3.46204 -13.6927 -18.5646 3.55307 -14.165 -18.7257 3.61985 -14.6143 -18.9024 3.66261 -15.0392 -19.0951 3.68162 -15.4389 -19.3042 3.83278 -16.0877 -19.6291 4.12472 -16.9653 -20.0672 4.40256 -17.7892 -20.5191 4.66408 -18.5592 -20.9854 4.90738 -19.2745 -21.4673 5.13079 -19.9347 -21.9658 5.33292 -20.5391 -22.4824 5.51256 -21.087 -23.0186 5.6687 -21.5776 -23.5764 5.8005 -22.0103 -24.158 5.90727 -22.384 -24.7659 5.98848 -22.6977 -25.403 6.04369 -22.9503 -26.0729 6.07258 -23.1404 -26.7794 6.07493 -23.2664 -27.5273 1.53696 -7.62403 -17.7688 1.90871 -8.24606 -17.7766 2.25452 -8.8584 -17.8002 2.57469 -9.45932 -17.839 2.86945 -10.0472 -17.8926 3.13897 -10.6205 -17.9606 3.38341 -11.1777 -18.0428 3.60286 -11.7176 -18.1389 3.79746 -12.2387 -18.249 3.9673 -12.7399 -18.3728 4.11252 -13.22 -18.5106 4.23323 -13.6778 -18.6625 4.3296 -14.1123 -18.8288 4.40178 -14.5224 -19.0098 4.44997 -14.907 -19.2059 4.65162 -15.56 -19.5237 5.01013 -16.4593 -19.9606 5.34759 -17.3028 -20.4104 5.66214 -18.0899 -20.8742 5.95219 -18.82 -21.3532 6.21636 -19.4926 -21.8487 6.45347 -20.1071 -22.3623 6.66253 -20.6627 -22.896 6.84271 -21.1587 -23.4519 6.9933 -21.5941 -24.0325 7.11375 -21.9681 -24.641 7.2036 -22.2796 -25.2805 7.26247 -22.5274 -25.9552 7.29009 -22.7099 -26.6695 7.28623 -22.8256 -27.4287 1.90883 -7.27978 -17.7364 2.30332 -7.89113 -17.7485 2.67306 -8.49216 -17.7752 3.01815 -9.08116 -17.816 3.33864 -9.65656 -17.8703 3.63454 -10.2169 -17.9378 3.90586 -10.7607 -18.0183 4.1526 -11.2867 -18.1115 4.37476 -11.7936 -18.2174 4.57235 -12.2802 -18.3358 4.7454 -12.7455 -18.467 4.89396 -13.1882 -18.6111 5.0181 -13.6074 -18.7685 5.11791 -14.0021 -18.9394 5.1935 -14.3712 -19.1245 5.44309 -15.0235 -19.4357 5.86542 -15.9357 -19.8705 6.2605 -16.7903 -20.3174 6.62678 -17.5868 -20.7777 6.9629 -18.3246 -21.2526 7.26771 -19.0031 -21.7437 7.54021 -19.6217 -22.2529 7.77956 -20.1796 -22.7822 7.98507 -20.6761 -23.3343 8.15614 -21.1103 -23.9119 8.29227 -21.4813 -24.5184 8.39306 -21.7878 -25.1576 8.45815 -22.0286 -25.8339 8.48727 -22.2023 -26.5524 8.48014 -22.307 -27.319 2.28158 -6.93639 -17.708 2.69703 -7.53689 -17.7242 3.08892 -8.12633 -17.754 3.45714 -8.70309 -17.7967 3.80156 -9.26566 -17.8521 4.12206 -9.81258 -17.9195 4.4185 -10.3425 -17.9989 4.69077 -10.8542 -18.0898 4.93877 -11.3464 -18.1924 5.16241 -11.8181 -18.3064 5.36163 -12.268 -18.4