<?xml version="1.0"?> 
<VTKFile type="StructuredGrid" version="0.1"> 
<StructuredGrid WholeExtent="0 14 0 14 0 29"> 
<Piece Extent="0 14 0 14 0 29"> 
<PointData>
<DataArray type="Float32" Name="efield" format="ascii" NumberOfComponents="3"> 
-1.64753 16.2481 -8.38317 -0.8704 16.8072 -6.78555 -0.268822 17.3663 -5.66691 0.217519 17.9254 -5.01534 0.627073 18.4845 -4.82701 0.985511 19.0436 -5.1064 1.31063 19.6027 -5.86686 1.61514 20.1618 -7.13168 1.15902 23.0557 -7.69991 0.759176 25.9497 -6.85804 0.42957 28.8436 -4.42425 0.181078 31.7376 -0.159538 0.0222886 34.6316 6.25116 -0.0399261 37.5255 15.2268 8.6986e-14 40.4195 27.3316 -2.53655 15.0513 -8.82354 -2.12737 15.6897 -7.1238 -1.80973 16.3095 -5.93434 -1.55175 16.9146 -5.23936 -1.33197 17.5078 -5.03226 -1.13545 18.091 -5.3158 -0.95147 18.6655 -6.10283 -0.772176 19.2323 -7.41744 -1.55299 22.2351 -8.0293 -2.24315 25.2132 -7.23007 -2.83473 28.1676 -4.83697 -3.32166 31.0992 -0.605599 -3.69933 34.0088 5.79204 -3.9642 36.897 14.8005 -4.11358 39.7643 27.032 -3.55979 13.9888 -9.19617 -3.41021 14.6509 -7.40873 -3.30474 15.287 -6.15812 -3.22561 15.9016 -5.42516 -3.16043 16.4978 -5.20081 -3.10034 17.0779 -5.48639 -3.03889 17.6436 -6.29428 -2.97129 18.1963 -7.64937 -4.0663 21.2179 -8.30234 -5.04972 24.1936 -7.54857 -5.91769 27.125 -5.2065 -6.66755 30.0133 -1.02959 -7.29751 32.8596 5.31842 -7.8065 35.6647 14.3012 -8.19401 38.4293 26.57 -4.6423 12.9855 -9.50104 -4.68531 13.641 -7.641 -4.74388 14.2675 -6.33956 -4.8079 14.8688 -5.57468 -4.8702 15.4479 -5.33528 -4.92558 16.0069 -5.62142 -4.97026 16.5477 -6.44512 -5.00146 17.0714 -7.83193 -6.39412 20.0452 -8.52048 -7.66367 22.9546 -7.80894 -8.80894 25.8011 -5.51812 -9.82952 28.5863 -1.40131 -10.7256 31.3114 4.88264 -11.4977 33.9773 13.8113 -12.1469 36.585 26.0666 -5.74366 12.0011 -9.73816 -5.93461 12.6312 -7.82113 -6.12321 13.231 -6.47966 -6.30382 13.8039 -5.68943 -6.47244 14.3523 -5.43773 -6.62622 14.878 -5.7236 -6.76309 15.3826 -6.55876 -6.8816 15.8671 -7.96925 -8.55256 18.7432 -8.68625 -10.0955 21.5384 -8.01008 -11.5111 24.2545 -5.76416 -12.8002 26.8929 -1.70264 -13.9642 29.4551 4.51829 -15.0047 31.9423 13.3858 -15.9236 34.3556 25.6052 -6.84088 11.0125 -9.90754 -7.14846 11.6036 -7.94951 -7.44216 12.1646 -6.57919 -7.71917 12.6979 -5.77059 -7.97755 13.2055 -5.50978 -8.21595 13.6888 -5.79506 -8.43346 14.149 -6.63791 -8.62953 14.5871 -8.06475 -10.5583 17.3272 -8.80233 -12.3591 19.9719 -8.15254 -14.0335 22.5233 -5.94106 -15.5833 24.983 -1.92318 -17.0103 27.3526 4.24622 -18.3167 29.6336 13.0606 -19.5048 31.8273 25.2414 -7.92086 10.0067 -10.0092 -8.3222 10.547 -8.02643 -8.70224 11.0587 -6.63869 -9.06005 11.5431 -5.81896 -9.39507 12.0015 -5.55255 -9.70702 12.4349 -5.83733 -9.99577 12.8442 -6.6846 -10.2613 13.2301 -8.121 -12.427 15.8035 -8.871 -14.4685 18.2695 -8.2374 -16.3879 20.63 -6.04745 -18.1873 22.8871 -2.05728 -19.8687 25.0425 4.07874 -21.4344 27.098 12.8575 -22.8867 29.0555 25.0104 -8.97682 8.97682 -10.043 -9.45459 9.45459 -8.05205 -9.90637 9.90637 -6.65849 -10.3326 10.3326 -5.83503 -10.7338 10.7338 -5.56674 -11.1102 11.1102 -5.85131 -11.4625 11.4625 -6.70002 -11.791 11.791 -8.13957 -14.172 14.172 -8.89371 -16.4359 16.4359 -8.26557 -18.5847 18.5847 -6.08293 -20.6206 20.6206 -2.10224 -22.5455 22.5455 4.02226 -24.3616 24.3616 12.7886 -26.0709 26.0709 24.9313 -10.0067 7.92086 -10.0092 -10.547 8.3222 -8.02643 -11.0587 8.70224 -6.63869 -11.5431 9.06005 -5.81896 -12.0015 9.39507 -5.55255 -12.4349 9.70702 -5.83733 -12.8442 9.99577 -6.6846 -13.2301 10.2613 -8.121 -15.8035 12.427 -8.871 -18.2695 14.4685 -8.2374 -20.63 16.3879 -6.04745 -22.8871 18.1873 -2.05728 -25.0425 19.8687 4.07874 -27.098 21.4344 12.8575 -29.0555 22.8867 25.0104 -11.0125 6.84088 -9.90754 -11.6036 7.14846 -7.94951 -12.1646 7.44216 -6.57919 -12.6979 7.71917 -5.77059 -13.2055 7.97755 -5.50978 -13.6888 8.21595 -5.79506 -14.149 8.43346 -6.63791 -14.5871 8.62953 -8.06475 -17.3272 10.5583 -8.80233 -19.9719 12.3591 -8.15254 -22.5233 14.0335 -5.94106 -24.983 15.5833 -1.92318 -27.3526 17.0103 4.24622 -29.6336 18.3167 13.0606 -31.8273 19.5048 25.2414 -12.0011 5.74366 -9.73816 -12.6312 5.93461 -7.82113 -13.231 6.12321 -6.47966 -13.8039 6.30382 -5.68943 -14.3523 6.47244 -5.43773 -14.878 6.62622 -5.7236 -15.3826 6.76309 -6.55876 -15.8671 6.8816 -7.96925 -18.7432 8.55256 -8.68625 -21.5384 10.0955 -8.01008 -24.2545 11.5111 -5.76416 -26.8929 12.8002 -1.70264 -29.4551 13.9642 4.51829 -31.9423 15.0047 13.3858 -34.3556 15.9236 25.6052 -12.9855 4.6423 -9.50104 -13.641 4.68531 -7.641 -14.2675 4.74388 -6.33956 -14.8688 4.8079 -5.57468 -15.4479 4.8702 -5.33528 -16.0069 4.92558 -5.62142 -16.5477 4.97026 -6.44512 -17.0714 5.00146 -7.83193 -20.0452 6.39412 -8.52048 -22.9546 7.66367 -7.80894 -25.8011 8.80894 -5.51812 -28.5863 9.82952 -1.40131 -31.3114 10.7256 4.88264 -33.9773 11.4977 13.8113 -36.585 12.1469 26.0666 -13.9888 3.55979 -9.19617 -14.6509 3.41021 -7.40873 -15.287 3.30474 -6.15812 -15.9016 3.22561 -5.42516 -16.4978 3.16043 -5.20081 -17.0779 3.10034 -5.48639 -17.6436 3.03889 -6.29428 -18.1963 2.97129 -7.64937 -21.2179 4.0663 -8.30234 -24.1936 5.04972 -7.54857 -27.125 5.91769 -5.2065 -30.0133 6.66755 -1.02959 -32.8596 7.29751 5.31842 -35.6647 7.8065 14.3012 -38.4293 8.19401 26.57 -15.0513 2.53655 -8.82354 -15.6897 2.12737 -7.1238 -16.3095 1.80973 -5.93434 -16.9146 1.55175 -5.23936 -17.5078 1.33197 -5.03226 -18.091 1.13545 -5.3158 -18.6655 0.95147 -6.10283 -19.2323 0.772176 -7.41744 -22.2351 1.55299 -8.0293 -25.2132 2.24315 -7.23007 -28.1676 2.83473 -4.83697 -31.0992 3.32166 -0.605599 -34.0088 3.69933 5.79204 -36.897 3.9642 14.8005 -39.7643 4.11358 27.032 -16.2481 1.64753 -8.38317 -16.8072 0.8704 -6.78555 -17.3663 0.268822 -5.66691 -17.9254 -0.217519 -5.01534 -18.4845 -0.627073 -4.82701 -19.0436 -0.985511 -5.1064 -19.6027 -1.31063 -5.86686 -20.1618 -1.61514 -7.13168 -23.0557 -1.15902 -7.69991 -25.9497 -0.759176 -6.85804 -28.8436 -0.42957 -4.42425 -31.7376 -0.181078 -0.159538 -34.6316 -0.0222886 6.25116 -37.5255 0.0399261 15.2268 -40.4195 -8.1626e-14 27.3316 0.340356 12.8229 3.10863 0.457727 14.2232 2.93105 0.479386 15.593 2.93191 0.457351 16.9266 3.11005 0.424236 18.2183 3.46664 0.401374 19.4627 4.00537 0.403143 20.654 4.73262 0.439391 21.7863 5.6578 0.775886 21.7551 6.44687 0.930583 21.6943 7.34362 0.940202 21.5993 8.36125 0.832778 21.4649 9.51608 0.629872 21.2847 10.8284 0.348068 21.0508 12.3235 0 20.7535 14.0335 -0.321074 11.6039 2.92415 -0.624214 13.1189 2.77185 -0.936627 14.5813 2.77734 -1.23372 15.9892 2.93903 -1.49923 17.3397 3.25795 -1.72211 18.6294 3.73789 -1.89472 19.8543 4.38558 -2.01173 21.0099 5.21104 -1.80809 21.2453 5.98262 -1.71674 21.4195 6.89724 -1.71119 21.53 7.97246 -1.77077 21.5725 9.23049 -1.87926 21.5406 10.6994 -2.0239 21.4255 12.4147 -2.19469 21.2152 14.4222 -1.1313 10.5336 2.76805 -1.74125 12.0976 2.64512 -2.31324 13.5977 2.66105 -2.83533 15.0325 2.81379 -3.29938 16.4 3.10414 -3.69978 17.6977 3.53582 -4.03262 18.9225 4.11573 -4.29517 20.0705 4.85429 -4.23243 20.4846 5.59468 -4.2268 20.8172 6.50363 -4.25908 21.0663 7.60276 -4.3139 21.2275 8.91979 -4.37871 21.2939 10.4902 -4.44316 21.2553 12.3595 -4.4985 21.0976 14.5869 -2.01958 9.54144 2.64033 -2.86348 11.115 2.54647 -3.64292 12.6171 2.57532 -4.35202 14.0464 2.72429 -4.98678 15.4012 2.99384 -5.54447 16.6794 3.38753 -6.02321 17.8785 3.91227 -6.42169 18.9953 4.57871 -6.49816 19.5185 5.28406 -6.58803 19.9483 6.17584 -6.67726 20.2825 7.27915 -6.75408 20.5162 8.62647 -6.80829 20.6417 10.2598 -6.83071 20.6479 12.2336 -6.81259 20.5188 14.6195 -2.94678 8.58818 2.541 -3.97421 10.1444 2.47273 -4.92254 11.6232 2.51431 -5.78881 13.0232 2.66261 -6.5711 14.343 2.91772 -7.26812 15.5807 3.283 -7.87903 16.7346 3.76529 -8.40318 17.8018 4.37532 -8.6105 18.3791 5.04826 -8.79673 18.8575 5.91968 -8.95143 19.2343 7.01743 -9.06522 19.5043 8.3778 -9.1292 19.6592 10.0481 -9.13436 19.687 12.0903 -9.07099 19.5709 14.5862 -3.89026 7.65119 2.47004 -5.0642 9.16923 2.42161 -6.15163 10.6048 2.47369 -7.15095 11.9567 2.62274 -8.06115 13.2237 2.86852 -8.88161 14.4045 3.21419 -9.61187 15.4975 3.6665 -10.2515 16.5008 4.23619 -10.5765 17.0879 4.88354 -10.8534 17.5762 5.73699 -11.0744 17.9625 6.82634 -11.2316 18.2409 8.19068 -11.3165 18.403 9.88122 -11.3197 18.4366 11.9654 -11.23 18.3247 14.5329 -4.83696 6.71743 2.42747 -6.12882 8.17887 2.39154 -7.33141 9.55392 2.45049 -8.44366 10.8415 2.60048 -9.46487 12.0405 2.84107 -10.3946 13.1502 3.17527 -11.2323 14.1695 3.60976 -11.9775 15.097 4.15526 -12.4031 15.6581 4.78636 -12.7602 16.1255 5.62774 -13.0424 16.4953 6.71037 -13.2427 16.7612 8.07503 -13.353 16.9148 9.77529 -13.3629 16.9442 11.882 -13.2592 16.8331 14.4896 -5.78006 5.78006 2.41328 -7.16664 7.16664 2.38162 -8.46433 8.46433 2.44295 -9.67212 9.67212 2.59334 -10.7893 10.7893 2.83226 -11.8152 11.8152 3.16269 -12.7492 12.7492 3.59127 -13.5904 13.5904 4.12871 -14.0961 14.0961 4.75425 -14.5181 14.5181 5.5914 -14.8514 14.8514 6.67153 -15.0897 15.0897 8.03595 -15.2244 15.2244 9.73907 -15.2445 15.2445 11.8528 -15.1349 15.1349 14.4733 -6.71743 4.83696 2.42747 -8.17887 6.12882 2.39154 -9.55392 7.33141 2.45049 -10.8415 8.44366 2.60048 -12.0405 9.46487 2.84107 -13.1502 10.3946 3.17527 -14.1695 11.2323 3.60976 -15.097 11.9775 4.15526 -15.6581 12.4031 4.78636 -16.1255 12.7602 5.62774 -16.4953 13.0424 6.71037 -16.7612 13.2427 8.07503 -16.9148 13.353 9.77529 -16.9442 13.3629 11.882 -16.8331 13.2592 14.4896 -7.65119 3.89026 2.47004 -9.16923 5.0642 2.42161 -10.6048 6.15163 2.47369 -11.9567 7.15095 2.62274 -13.2237 8.06115 2.86852 -14.4045 8.88161 3.21419 -15.4975 9.61187 3.6665 -16.5008 10.2515 4.23619 -17.0879 10.5765 4.88354 -17.5762 10.8534 5.73699 -17.9625 11.0744 6.82634 -18.2409 11.2316 8.19068 -18.403 11.3165 9.88122 -18.4366 11.3197 11.9654 -18.3247 11.23 14.5329 -8.58818 2.94678 2.541 -10.1444 3.97421 2.47273 -11.6232 4.92254 2.51431 -13.0232 5.78881 2.66261 -14.343 6.5711 2.91772 -15.5807 7.26812 3.283 -16.7346 7.87903 3.76529 -17.8018 8.40318 4.37532 -18.3791 8.6105 5.04826 -18.8575 8.79673 5.91968 -19.2343 8.95143 7.01743 -19.5043 9.06522 8.3778 -19.6592 9.1292 10.0481 -19.687 9.13436 12.0903 -19.5709 9.07099 14.5862 -9.54144 2.01958 2.64033 -11.115 2.86348 2.54647 -12.6171 3.64292 2.57532 -14.0464 4.35202 2.72429 -15.4012 4.98678 2.99384 -16.6794 5.54447 3.38753 -17.8785 6.02321 3.91227 -18.9953 6.42169 4.57871 -19.5185 6.49816 5.28406 -19.9483 6.58803 6.17584 -20.2825 6.67726 7.27915 -20.5162 6.75408 8.62647 -20.6417 6.80829 10.2598 -20.6479 6.83071 12.2336 -20.5188 6.81259 14.6195 -10.5336 1.1313 2.76805 -12.0976 1.74125 2.64512 -13.5977 2.31324 2.66105 -15.0325 2.83533 2.81379 -16.4 3.29938 3.10414 -17.6977 3.69978 3.53582 -18.9225 4.03262 4.11573 -20.0705 4.29517 4.85429 -20.4846 4.23243 5.59468 -20.8172 4.2268 6.50363 -21.0663 4.25908 7.60276 -21.2275 4.3139 8.91979 -21.2939 4.37871 10.4902 -21.2553 4.44316 12.3595 -21.0976 4.4985 14.5869 -11.6039 0.321074 2.92415 -13.1189 0.624214 2.77185 -14.5813 0.936627 2.77734 -15.9892 1.23372 2.93903 -17.3397 1.49923 3.25795 -18.6294 1.72211 3.73789 -19.8543 1.89472 4.38558 -21.0099 2.01173 5.21104 -21.2453 1.80809 5.98262 -21.4195 1.71674 6.89724 -21.53 1.71119 7.97246 -21.5725 1.77077 9.23049 -21.5406 1.87926 10.6994 -21.4255 2.0239 12.4147 -21.2152 2.19469 14.4222 -12.8229 -0.340356 3.10863 -14.2232 -0.457727 2.93105 -15.593 -0.479386 2.93191 -16.9266 -0.457351 3.11005 -18.2183 -0.424236 3.46664 -19.4627 -0.401374 4.00537 -20.654 -0.403143 4.73262 -21.7863 -0.439391 5.6578 -21.7551 -0.775886 6.44687 -21.6943 -0.930583 7.34362 -21.5993 -0.940202 8.36125 -21.4649 -0.832778 9.51608 -21.2847 -0.629872 10.8284 -21.0508 -0.348068 12.3235 -20.7535 2.52949e-15 14.0335 -0.4401 12.2947 11.8509 0.162872 13.2692 11.985 0.438667 14.2371 12.1257 0.528119 15.1987 12.259 0.515062 16.1558 12.371 0.453349 17.1112 12.4478 0.379919 18.0689 12.4752 0.3217 19.0344 12.4382 0.671207 18.6989 11.9049 0.839634 18.367 11.4723 0.865401 18.0311 11.1468 0.776713 17.6823 10.9364 0.594115 17.3107 10.8519 0.332095 16.9043 10.9074 -1.91396e-14 16.4485 11.1225 -0.984046 11.1452 11.8617 -0.844696 12.3115 11.9659 -0.893978 13.429 12.082 -1.04668 14.506 12.193 -1.24879 15.5485 12.2831 -1.46394 16.5618 12.3374 -1.66636 17.5509 12.3416 -1.83691 18.5214 12.2823 -1.57412 18.3929 11.8321 -1.4349 18.2384 11.4785 -1.38864 18.0544 11.2282 -1.41214 17.8356 11.0897 -1.48779 17.5748 11.0747 -1.6025 17.2627 11.198 -1.74695 16.8871 11.4799 -1.64384 10.1114 11.8708 -1.86186 11.3878 11.9617 -2.17902 12.5946 12.0665 -2.54171 13.7408 12.1656 -2.91433 14.8326 12.2414 -3.2721 15.8753 12.2784 -3.59711 16.8735 12.2625 -3.87594 17.8322 12.1814 -3.70411 17.8506 11.7822 -3.60792 17.8212 11.4719 -3.56355 17.7425 11.2584 -3.55241 17.6111 11.1521 -3.55996 17.4212 11.1669 -3.5749 17.1647 11.3205 -3.58864 16.8304 11.6365 -2.37489 9.14897 11.8782 -2.87613 10.4787 11.9662 -3.41651 11.7296 12.0684 -3.96122 12.9082 12.163 -4.48632 14.0194 12.2309 -4.97483 15.0673 12.2556 -5.41439 16.0557 12.2234 -5.79584 16.9883 12.1232 -5.71304 17.1049 11.754 -5.66599 17.1589 11.4644 -5.63657 17.1496 11.264 -5.61022 17.0745 11.1659 -5.5751 16.9283 11.1866 -5.52153 16.7036 11.3478 -5.44156 16.3894 11.6773 -3.15101 8.23157 11.884 -3.88009 9.57196 11.9745 -4.60707 10.8307 12.0791 -5.30874 12.0114 12.1737 -5.96878 13.1166 12.238 -6.57557 14.1489 12.2547 -7.12072 15.1109 12.2103 -7.59816 16.0054 12.0946 -7.59789 16.1804 11.7421 -7.60046 16.2845 11.4601 -7.59243 16.3172 11.2601 -7.56259 16.2758 11.1574 -7.50131 16.1554 11.1718 -7.40013 15.9486 11.3287 -7.25132 15.6449 11.6602 -3.95638 7.34342 11.8881 -4.86945 8.6594 11.9831 -5.75163 9.89545 12.0916 -6.58721 11.0518 12.1883 -7.36506 12.1289 12.2515 -8.07733 13.1275 12.2634 -8.71852 14.0489 12.2107 -9.28486 14.8948 12.0837 -9.35705 15.0954 11.7398 -9.40544 15.2231 11.459 -9.4204 15.2766 11.2541 -9.39339 15.2528 11.1427 -9.31649 15.1469 11.147 -9.18198 14.9516 11.2954 -8.98199 14.6566 11.6237 -4.78162 6.47514 11.8906 -5.84202 7.73564 11.9892 -6.85133 8.92167 12.1011 -7.79906 10.0302 12.1998 -8.67779 11.0592 12.263 -9.48247 12.0078 12.2725 -10.2098 12.8759 12.2149 -10.8577 13.6639 12.0811 -10.9892 13.8631 11.7413 -11.0762 13.993 11.4594 -11.112 14.0513 11.2497 -11.0901 14.0343 11.1308 -11.004 13.9365 11.1269 -10.8462 13.7509 11.2681 -10.6084 13.4677 11.5928 -5.62173 5.62173 11.8914 -6.79718 6.79718 11.9914 -7.90751 7.90751 12.1046 -8.94624 8.94624 12.2041 -9.90885 9.90885 12.2674 -10.7925 10.7925 12.2762 -11.5956 11.5956 12.217 -12.3175 12.3175 12.081 -12.4924 12.4924 11.7422 -12.6076 12.6076 11.4598 -12.6589 12.6589 11.2481 -12.6413 12.6413 11.1264 -12.5492 12.5492 11.1193 -12.3752 12.3752 11.2579 -12.1103 12.1103 11.581 -6.47514 4.78162 11.8906 -7.73564 5.84202 11.9892 -8.92167 6.85133 12.1011 -10.0302 7.79906 12.1998 -11.0592 8.67779 12.263 -12.0078 9.48247 12.2725 -12.8759 10.2098 12.2149 -13.6639 10.8577 12.0811 -13.8631 10.9892 11.7413 -13.993 11.0762 11.4594 -14.0513 11.112 11.2497 -14.0343 11.0901 11.1308 -13.9365 11.004 11.1269 -13.7509 10.8462 11.2681 -13.4677 10.6084 11.5928 -7.34342 3.95638 11.8881 -8.6594 4.86945 11.9831 -9.89545 5.75163 12.0916 -11.0518 6.58721 12.1883 -12.1289 7.36506 12.2515 -13.1275 8.07733 12.2634 -14.0489 8.71852 12.2107 -14.8948 9.28486 12.0837 -15.0954 9.35705 11.7398 -15.2231 9.40544 11.459 -15.2766 9.4204 11.2541 -15.2528 9.39339 11.1427 -15.1469 9.31649 11.147 -14.9516 9.18198 11.2954 -14.6566 8.98199 11.6237 -8.23157 3.15101 11.884 -9.57196 3.88009 11.9745 -10.8307 4.60707 12.0791 -12.0114 5.30874 12.1737 -13.1166 5.96878 12.238 -14.1489 6.57557 12.2547 -15.1109 7.12072 12.2103 -16.0054 7.59816 12.0946 -16.1804 7.59789 11.7421 -16.2845 7.60046 11.4601 -16.3172 7.59243 11.2601 -16.2758 7.56259 11.1574 -16.1554 7.50131 11.1718 -15.9486 7.40013 11.3287 -15.6449 7.25132 11.6602 -9.14897 2.37489 11.8782 -10.4787 2.87613 11.9662 -11.7296 3.41651 12.0684 -12.9082 3.96122 12.163 -14.0194 4.48632 12.2309 -15.0673 4.97483 12.2556 -16.0557 5.41439 12.2234 -16.9883 5.79584 12.1232 -17.1049 5.71304 11.754 -17.1589 5.66599 11.4644 -17.1496 5.63657 11.264 -17.0745 5.61022 11.1659 -16.9283 5.5751 11.1866 -16.7036 5.52153 11.3478 -16.3894 5.44156 11.6773 -10.1114 1.64384 11.8708 -11.3878 1.86186 11.9617 -12.5946 2.17902 12.0665 -13.7408 2.54171 12.1656 -14.8326 2.91433 12.2414 -15.8753 3.2721 12.2784 -16.8735 3.59711 12.2625 -17.8322 3.87594 12.1814 -17.8506 3.70411 11.7822 -17.8212 3.60792 11.4719 -17.7425 3.56355 11.2584 -17.6111 3.55241 11.1521 -17.4212 3.55996 11.1669 -17.1647 3.5749 11.3205 -16.8304 3.58864 11.6365 -11.1452 0.984046 11.8617 -12.3115 0.844696 11.9659 -13.429 0.893978 12.082 -14.506 1.04668 12.193 -15.5485 1.24879 12.2831 -16.5618 1.46394 12.3374 -17.5509 1.66636 12.3416 -18.5214 1.83691 12.2823 -18.3929 1.57412 11.8321 -18.2384 1.4349 11.4785 -18.0544 1.38864 11.2282 -17.8356 1.41214 11.0897 -17.5748 1.48779 11.0747 -17.2627 1.6025 11.198 -16.8871 1.74695 11.4799 -12.2947 0.4401 11.8509 -13.2692 -0.162872 11.985 -14.2371 -0.438667 12.1257 -15.1987 -0.528119 12.259 -16.1558 -0.515062 12.371 -17.1112 -0.453349 12.4478 -18.0689 -0.379919 12.4752 -19.0344 -0.3217 12.4382 -18.6989 -0.671207 11.9049 -18.367 -0.839634 11.4723 -18.0311 -0.865401 11.1468 -17.6823 -0.776713 10.9364 -17.3107 -0.594115 10.8519 -16.9043 -0.332095 10.9074 -16.4485 2.28491e-14 11.1225 -0.507823 11.7133 15.8731 0.123775 12.583 15.6892 0.414353 13.4624 15.4921 0.512 14.3525 15.2808 0.504235 15.2546 15.0543 0.447282 16.1698 14.8113 0.379904 17.0996 14.5506 0.330547 18.0456 14.2706 0.657188 17.7765 13.7038 0.801703 17.5512 13.0654 0.80585 17.3762 12.35 0.702528 17.2591 11.5508 0.518724 17.2084 10.6602 0.277592 17.2337 9.66882 -1.41082e-14 17.3462 8.56592 -1.04799 10.6527 15.9383 -0.855136 11.707 15.7547 -0.866494 12.7268 15.5612 -0.991151 13.7214 15.3557 -1.17166 14.6965 15.1363 -1.36918 15.656 14.9007 -1.55595 16.6025 14.6462 -1.71116 17.5382 14.37 -1.4737 17.4667 13.8455 -1.36547 17.4074 13.2425 -1.35443 17.3705 12.5545 -1.41496 17.3665 11.7736 -1.52584 17.4062 10.8905 -1.66881 17.5013 9.89392 -1.82742 17.665 8.7699 -1.68806 9.69194 15.9936 -1.83584 10.8536 15.8111 -2.09836 11.9584 15.6211 -2.41779 13.0167 15.421 -2.75557 14.0343 15.2079 -3.08456 15.0149 14.9784 -3.38481 15.9611 14.729 -3.64122 16.8749 14.4556 -3.49585 16.9422 13.9616 -3.43563 16.997 13.381 -3.43721 17.0513 12.706 -3.482 17.1171 11.9273 -3.5547 17.2066 11.0336 -3.64241 17.333 10.0108 -3.73378 17.5112 8.84178 -2.38964 8.79275 16.0388 -2.80875 10.0073 15.8578 -3.28205 11.155 15.6713 -3.7717 12.2435 15.4759 -4.25127 13.2773 15.268 -4.70154 14.2589 15.0437 -5.10812 15.1899 14.7984 -5.46012 16.0715 14.527 -5.40421 16.2305 14.0548 -5.39664 16.3589 13.488 -5.42175 16.4693 12.8175 -5.46734 16.5741 12.0325 -5.52387 16.6862 11.1197 -5.58374 16.8196 10.0625 -5.64092 16.9898 8.8403 -3.13006 7.93239 16.0739 -3.76819 9.15843 15.8945 -4.41861 10.3145 15.7109 -5.05598 11.4052 15.5194 -5.66189 12.4323 15.3158 -6.22254 13.3969 15.0956 -6.72752 14.2992 14.8535 -7.16898 15.1398 14.5836 -7.19577 15.352 14.1266 -7.24051 15.5223 13.5679 -7.29411 15.6627 12.8974 -7.35014 15.785 12.103 -7.40426 15.902 11.1695 -7.45396 16.0277 10.0782 -7.49833 16.1779 8.80539 -3.89553 7.09709 16.099 -4.71094 8.30044 15.9209 -5.50917 9.43566 15.7395 -6.27315 10.5036 15.5509 -6.98993 11.5037 15.3506 -7.64957 12.435 15.1334 -8.24448 13.2966 14.8936 -8.76904 14.088 14.6247 -8.86854 14.3221 14.1776 -8.9615 14.5094 13.6234 -9.04444 14.6601 12.9513 -9.11588 14.7852 12.1478 -9.17614 14.8964 11.1966 -9.22725 15.0067 10.0773 -9.27303 15.1315 8.76378 -4.67787 6.27865 16.1141 -5.6354 7.42898 15.9368 -6.55494 8.51695 15.7569 -7.42523 9.53971 15.5701 -8.23731 10.4942 15.3717 -8.98406 11.3775 15.1563 -9.66002 12.1873 14.9179 -10.2612 12.9221 14.6497 -10.4207 13.152 14.2082 -10.5548 13.3363 13.6562 -10.6648 13.4831 12.9824 -10.7534 13.6011 12.1726 -10.8249 13.7005 11.2098 -10.8852 13.7927 10.0722 -10.9422 13.8916 8.73253 -5.4727 5.4727 16.1191 -6.54119 6.54119 15.9422 -7.55712 7.55712 15.7627 -8.51374 8.51374 15.5765 -9.40523 9.40523 15.3787 -10.2267 10.2267 15.164 -10.9745 10.9745 14.9261 -11.6458 11.6458 14.658 -11.8497 11.8497 14.2184 -12.0152 12.0152 13.6671 -12.1474 12.1474 12.9926 -12.2523 12.2523 12.1806 -12.3376 12.3376 11.2136 -12.4123 12.4123 10.0698 -12.4878 12.4878 8.7211 -6.27865 4.67787 16.1141 -7.42898 5.6354 15.9368 -8.51695 6.55494 15.7569 -9.53971 7.42523 15.5701 -10.4942 8.23731 15.3717 -11.3775 8.98406 15.1563 -12.1873 9.66002 14.9179 -12.9221 10.2612 14.6497 -13.152 10.4207 14.2082 -13.3363 10.5548 13.6562 -13.4831 10.6648 12.9824 -13.6011 10.7534 12.1726 -13.7005 10.8249 11.2098 -13.7927 10.8852 10.0722 -13.8916 10.9422 8.73253 -7.09709 3.89553 16.099 -8.30044 4.71094 15.9209 -9.43566 5.50917 15.7395 -10.5036 6.27315 15.5509 -11.5037 6.98993 15.3506 -12.435 7.64957 15.1334 -13.2966 8.24448 14.8936 -14.088 8.76904 14.6247 -14.3221 8.86854 14.1776 -14.5094 8.9615 13.6234 -14.6601 9.04444 12.9513 -14.7852 9.11588 12.1478 -14.8964 9.17614 11.1966 -15.0067 9.22725 10.0773 -15.1315 9.27303 8.76378 -7.93239 3.13006 16.0739 -9.15843 3.76819 15.8945 -10.3145 4.41861 15.7109 -11.4052 5.05598 15.5194 -12.4323 5.66189 15.3158 -13.3969 6.22254 15.0956 -14.2992 6.72752 14.8535 -15.1398 7.16898 14.5836 -15.352 7.19577 14.1266 -15.5223 7.24051 13.5679 -15.6627 7.29411 12.8974 -15.785 7.35014 12.103 -15.902 7.40426 11.1695 -16.0277 7.45396 10.0782 -16.1779 7.49833 8.80539 -8.79275 2.38964 16.0388 -10.0073 2.80875 15.8578 -11.155 3.28205 15.6713 -12.2435 3.7717 15.4759 -13.2773 4.25127 15.268 -14.2589 4.70154 15.0437 -15.1899 5.10812 14.7984 -16.0715 5.46012 14.527 -16.2305 5.40421 14.0548 -16.3589 5.39664 13.488 -16.4693 5.42175 12.8175 -16.5741 5.46734 12.0325 -16.6862 5.52387 11.1197 -16.8196 5.58374 10.0625 -16.9898 5.64092 8.8403 -9.69194 1.68806 15.9936 -10.8536 1.83584 15.8111 -11.9584 2.09836 15.6211 -13.0167 2.41779 15.421 -14.0343 2.75557 15.2079 -15.0149 3.08456 14.9784 -15.9611 3.38481 14.729 -16.8749 3.64122 14.4556 -16.9422 3.49585 13.9616 -16.997 3.43563 13.381 -17.0513 3.43721 12.706 -17.1171 3.482 11.9273 -17.2066 3.5547 11.0336 -17.333 3.64241 10.0108 -17.5112 3.73378 8.84178 -10.6527 1.04799 15.9383 -11.707 0.855136 15.7547 -12.7268 0.866494 15.5612 -13.7214 0.991151 15.3557 -14.6965 1.17166 15.1363 -15.656 1.36918 14.9007 -16.6025 1.55595 14.6462 -17.5382 1.71116 14.37 -17.4667 1.4737 13.8455 -17.4074 1.36547 13.2425 -17.3705 1.35443 12.5545 -17.3665 1.41496 11.7736 -17.4062 1.52584 10.8905 -17.5013 1.66881 9.89392 -17.665 1.82742 8.7699 -11.7133 0.507823 15.8731 -12.583 -0.123775 15.6892 -13.4624 -0.414353 15.4921 -14.3525 -0.512 15.2808 -15.2546 -0.504235 15.0543 -16.1698 -0.447282 14.8113 -17.0996 -0.379904 14.5506 -18.0456 -0.330547 14.2706 -17.7765 -0.657188 13.7038 -17.5512 -0.801703 13.0654 -17.3762 -0.80585 12.35 -17.2591 -0.702528 11.5508 -17.2084 -0.518724 10.6602 -17.2337 -0.277592 9.66882 -17.3462 1.88737e-14 8.56592 -0.55531 11.1068 19.1778 0.0921716 11.894 18.8636 0.391782 12.7009 18.5068 0.495303 13.5311 18.1056 0.491514 14.3886 17.6583 0.437292 15.2776 17.1625 0.372069 16.2024 16.6155 0.325213 17.1679 16.0142 0.630342 16.9994 15.1314 0.756061 16.8915 14.2013 0.747423 16.8494 13.2187 0.640061 16.8794 12.1776 0.463313 16.9885 11.0713 0.242397 17.1849 9.89202 -5.53184e-15 17.4781 8.63107 -1.07697 10.1211 19.3056 -0.84771 11.0865 19.009 -0.831221 12.0261 18.6701 -0.934036 12.9522 18.2863 -1.09776 13.8735 17.8549 -1.2831 14.7965 17.3725 -1.46188 15.7271 16.835 -1.61273 16.6707 16.2379 -1.40173 16.6866 15.3939 -1.32031 16.7307 14.49 -1.33355 16.8127 13.5196 -1.41338 16.9423 12.4751 -1.53646 17.1297 11.3476 -1.68258 17.386 10.1264 -1.8335 17.7237 8.79906 -1.68779 9.22458 19.4138 -1.7847 10.2944 19.1329 -2.00512 11.315 18.8097 -2.28989 12.2997 18.4411 -2.60006 13.2574 18.0235 -2.90844 14.1948 17.5524 -3.1951 15.1174 17.0229 -3.44481 16.0303 16.4291 -3.33005 16.175 15.613 -3.30324 16.3223 14.7244 -3.33866 16.4843 13.7551 -3.41564 16.6728 12.6955 -3.51708 16.8999 11.5343 -3.62839 17.1789 10.2576 -3.73667 17.5247 8.84864 -2.35361 8.38304 19.5023 -2.71113 9.50492 19.2348 -3.13125 10.5666 18.925 -3.57581 11.5791 18.5691 -4.01863 12.5497 18.1629 -4.44091 13.4837 17.7013 -4.82873 14.3858 17.1784 -5.17157 15.2604 16.5873 -5.14997 15.4887 15.7911 -5.18156 15.7009 14.9107 -5.24879 15.9097 13.9365 -5.33787 16.1278 12.8571 -5.4378 16.3683 11.6587 -5.53976 16.6457 10.3244 -5.63651 16.9766 8.8334 -3.05411 7.57618 19.5711 -3.62247 8.71005 19.3144 -4.21092 9.78019 19.0153 -4.79469 10.7941 18.6696 -5.35616 11.7566 18.2725 -5.88248 12.6714 17.8183 -6.36412 13.5417 17.3005 -6.7941 14.3709 16.7115 -6.85871 14.646 15.9291 -6.94784 14.8928 15.0527 -7.05103 15.1235 14.0715 -7.1607 15.3504 12.9724 -7.27157 15.5869 11.7397 -7.38032 15.8477 10.3537 -7.48534 16.1498 8.79012 -3.77695 6.79166 19.6203 -4.51616 7.9043 19.3715 -5.24542 8.95481 19.0801 -5.94884 9.94681 18.7418 -6.61482 10.8825 18.3513 -7.23477 11.7636 17.9025 -7.80247 12.5917 17.3885 -8.31361 13.3691 16.8009 -8.4544 13.6606 16.0275 -8.59671 13.918 15.1528 -8.73617 14.1518 14.165 -8.87063 14.3733 13.0498 -8.99991 14.5949 11.7897 -9.12572 14.8305 10.3633 -9.25172 15.0967 8.74364 -4.51473 6.02209 19.6498 -5.39099 7.08401 19.4058 -6.23594 8.0896 19.1192 -7.04008 9.03855 18.7853 -7.79619 9.9302 18.3988 -8.49894 10.7641 17.9534 -9.14461 11.5404 17.4415 -9.73101 12.2599 16.8548 -9.93528 12.5426 16.0866 -10.1236 12.7913 15.2124 -10.2968 13.0143 14.22 -10.4572 13.2207 13.0943 -10.6091 13.4211 11.8168 -10.7586 13.6278 10.3649 -10.9138 13.8555 8.70986 -5.26353 5.26353 19.6596 -6.24673 6.24673 19.4172 -7.18365 7.18365 19.1322 -8.06971 8.06971 18.7998 -8.90123 8.90123 18.4147 -9.67548 9.67548 17.9703 -10.3908 10.3908 17.4593 -11.0466 11.0466 16.8729 -11.2991 11.2991 16.1062 -11.5238 11.5238 15.2322 -11.7257 11.7257 14.2382 -11.9108 11.9108 13.1088 -12.0871 12.0871 11.8254 -12.2643 12.2643 10.3648 -12.4542 12.4542 8.69765 -6.02209 4.51473 19.6498 -7.08401 5.39099 19.4058 -8.0896 6.23594 19.1192 -9.03855 7.04008 18.7853 -9.9302 7.79619 18.3988 -10.7641 8.49894 17.9534 -11.5404 9.14461 17.4415 -12.2599 9.73101 16.8548 -12.5426 9.93528 16.0866 -12.7913 10.1236 15.2124 -13.0143 10.2968 14.22 -13.2207 10.4572 13.0943 -13.4211 10.6091 11.8168 -13.6278 10.7586 10.3649 -13.8555 10.9138 8.70986 -6.79166 3.77695 19.6203 -7.9043 4.51616 19.3715 -8.95481 5.24542 19.0801 -9.94681 5.94884 18.7418 -10.8825 6.61482 18.3513 -11.7636 7.23477 17.9025 -12.5917 7.80247 17.3885 -13.3691 8.31361 16.8009 -13.6606 8.4544 16.0275 -13.918 8.59671 15.1528 -14.1518 8.73617 14.165 -14.3733 8.87063 13.0498 -14.5949 8.99991 11.7897 -14.8305 9.12572 10.3633 -15.0967 9.25172 8.74364 -7.57618 3.05411 19.5711 -8.71005 3.62247 19.3144 -9.78019 4.21092 19.0153 -10.7941 4.79469 18.6696 -11.7566 5.35616 18.2725 -12.6714 5.88248 17.8183 -13.5417 6.36412 17.3005 -14.3709 6.7941 16.7115 -14.646 6.85871 15.9291 -14.8928 6.94784 15.0527 -15.1235 7.05103 14.0715 -15.3504 7.1607 12.9724 -15.5869 7.27157 11.7397 -15.8477 7.38032 10.3537 -16.1498 7.48534 8.79012 -8.38304 2.35361 19.5023 -9.50492 2.71113 19.2348 -10.5666 3.13125 18.925 -11.5791 3.57581 18.5691 -12.5497 4.01863 18.1629 -13.4837 4.44091 17.7013 -14.3858 4.82873 17.1784 -15.2604 5.17157 16.5873 -15.4887 5.14997 15.7911 -15.7009 5.18156 14.9107 -15.9097 5.24879 13.9365 -16.1278 5.33787 12.8571 -16.3683 5.4378 11.6587 -16.6457 5.53976 10.3244 -16.9766 5.63651 8.8334 -9.22458 1.68779 19.4138 -10.2944 1.7847 19.1329 -11.315 2.00512 18.8097 -12.2997 2.28989 18.4411 -13.2574 2.60006 18.0235 -14.1948 2.90844 17.5524 -15.1174 3.1951 17.0229 -16.0303 3.44481 16.4291 -16.175 3.33005 15.613 -16.3223 3.30324 14.7244 -16.4843 3.33866 13.7551 -16.6728 3.41564 12.6955 -16.8999 3.51708 11.5343 -17.1789 3.62839 10.2576 -17.5247 3.73667 8.84864 -10.1211 1.07697 19.3056 -11.0865 0.84771 19.009 -12.0261 0.831221 18.6701 -12.9522 0.934036 18.2863 -13.8735 1.09776 17.8549 -14.7965 1.2831 17.3725 -15.7271 1.46188 16.835 -16.6707 1.61273 16.2379 -16.6866 1.40173 15.3939 -16.7307 1.32031 14.49 -16.8127 1.33355 13.5196 -16.9423 1.41338 12.4751 -17.1297 1.53646 11.3476 -17.386 1.68258 10.1264 -17.7237 1.8335 8.79906 -11.1068 0.55531 19.1778 -11.894 -0.0921716 18.8636 -12.7009 -0.391782 18.5068 -13.5311 -0.495303 18.1056 -14.3886 -0.491514 17.6583 -15.2776 -0.437292 17.1625 -16.2024 -0.372069 16.6155 -17.1679 -0.325213 16.0142 -16.9994 -0.630342 15.1314 -16.8915 -0.756061 14.2013 -16.8494 -0.747423 13.2187 -16.8794 -0.640061 12.1776 -16.9885 -0.463313 11.0713 -17.1849 -0.242397 9.89202 -17.4781 1.11563e-14 8.63107 -0.575576 10.4549 22.4824 0.080439 11.171 22.0371 0.381736 11.9185 21.5203 0.4839 12.7042 20.93 0.477153 13.5351 20.2636 0.419285 14.4185 19.5181 0.350725 15.3624 18.6898 0.302157 16.3753 17.7743 0.600123 16.2836 16.573 0.716392 16.2715 15.3477 0.700189 16.3428 14.0935 0.590482 16.5018 12.8051 0.419356 16.7539 11.4766 0.214326 17.1051 10.1016 -1.2698e-14 17.5629 8.67295 -1.06914 9.53709 22.6728 -0.812794 10.4257 22.2621 -0.777488 11.2985 21.7775 -0.867262 12.1714 21.216 -1.02273 13.0561 20.5741 -1.20402 13.9625 19.8477 -1.38234 14.8999 19.0317 -1.53552 15.8773 18.1202 -1.33763 15.9606 16.9544 -1.27396 16.0903 15.7467 -1.30595 16.2755 14.4906 -1.40252 16.5247 13.1786 -1.53779 16.8474 11.8021 -1.68928 17.2538 10.3513 -1.83675 17.7551 8.81466 -1.64364 8.70026 22.8339 -1.70018 9.69065 22.4534 -1.88868 10.6405 21.9966 -2.14873 11.5667 21.4599 -2.44108 12.4813 20.839 -2.73844 13.3943 20.1289 -3.02076 14.3146 19.3235 -3.27257 15.251 18.4155 -3.17589 15.4556 17.2752 -3.17373 15.6804 16.076 -3.23731 15.9371 14.8096 -3.34341 16.2373 13.4661 -3.47273 16.5928 12.0343 -3.60869 17.0169 10.5004 -3.73655 17.5242 8.84835 -2.26828 7.91359 22.9658 -2.5755 8.95536 22.6104 -2.95342 9.94459 22.1768 -3.36374 10.8957 21.6607 -3.78061 11.8191 21.0574 -4.18571 12.7235 20.3609 -4.56553 13.6169 19.5642 -4.90986 14.507 18.659 -4.91068 14.7893 17.5369 -4.97287 15.0723 16.3408 -5.07646 15.3686 15.0606 -5.20562 15.691 13.6844 -5.34764 16.0531 12.1982 -5.49208 16.4697 10.5848 -5.63027 16.9577 8.8236 -2.92472 7.15869 23.0683 -3.43507 8.21298 22.7329 -3.97315 9.21048 22.3176 -4.51487 10.1619 21.8179 -5.04358 11.0753 21.2283 -5.