<?xml version="1.0"?> 
<VTKFile type="StructuredGrid" version="0.1"> 
<StructuredGrid WholeExtent="0 29 0 29 0 29"> 
<Piece Extent="0 29 0 29 0 29"> 
<PointData>
<DataArray type="Float32" Name="efield" format="ascii" NumberOfComponents="3"> 
8.19789e-13 -15.0286 2.8969 0.41467 -14.4068 3.04568 0.836736 -13.7924 3.18382 1.2662 -13.1854 3.31134 1.70306 -12.5858 3.42823 2.14732 -11.9936 3.53449 2.59897 -11.4088 3.63013 3.05802 -10.8314 3.71514 3.52447 -10.2614 3.78953 3.99832 -9.69881 3.85329 4.47956 -9.1436 3.90642 4.9682 -8.59578 3.94893 5.46423 -8.05537 3.98081 5.96767 -7.52234 4.00206 6.47849 -6.99672 4.01269 6.99672 -6.47849 4.01269 7.52234 -5.96767 4.00206 8.05537 -5.46423 3.98081 8.59578 -4.9682 3.94893 9.1436 -4.47956 3.90642 9.69881 -3.99832 3.85329 10.2614 -3.52447 3.78953 10.8314 -3.05802 3.71514 11.4088 -2.59897 3.63013 11.9936 -2.14732 3.53449 12.5858 -1.70306 3.42823 13.1854 -1.2662 3.31134 13.7924 -0.836736 3.18382 14.4068 -0.41467 3.04568 15.0286 5.24025e-14 2.8969 -0.41467 -14.4068 3.04568 6.67939e-13 -13.7993 3.15689 0.421556 -13.1987 3.26015 0.85 -12.6049 3.35548 1.28533 -12.0181 3.44286 1.72755 -11.4382 3.52229 2.17665 -10.8651 3.59379 2.63264 -10.2989 3.65734 3.09552 -9.73962 3.71294 3.56528 -9.18721 3.7606 4.04193 -8.64169 3.80032 4.52547 -8.10306 3.8321 5.01589 -7.57132 3.85593 5.51321 -7.04646 3.87181 6.0174 -6.52849 3.87976 6.52849 -6.0174 3.87976 7.04646 -5.51321 3.87181 7.57132 -5.01589 3.85593 8.10306 -4.52547 3.8321 8.64169 -4.04193 3.80032 9.18721 -3.56528 3.7606 9.73962 -3.09552 3.71294 10.2989 -2.63264 3.65734 10.8651 -2.17665 3.59379 11.4382 -1.72755 3.52229 12.0181 -1.28533 3.44286 12.6049 -0.85 3.35548 13.1987 -0.421556 3.26015 13.7993 1.45803e-14 3.15689 14.4068 0.41467 3.04568 -0.836736 -13.7924 3.18382 -0.421556 -13.1987 3.26015 5.30025e-13 -12.6113 3.33104 0.427933 -12.0304 3.39646 0.862243 -11.4558 3.45644 1.30293 -10.8875 3.51097 1.74999 -10.3257 3.56004 2.20343 -9.77023 3.60366 2.66325 -9.22114 3.64182 3.12944 -8.67842 3.67454 3.60201 -8.14209 3.7018 4.08096 -7.61213 3.72361 4.56628 -7.08855 3.73997 5.05798 -6.57134 3.75087 5.55606 -6.06051 3.75633 6.06051 -5.55606 3.75633 6.57134 -5.05798 3.75087 7.08855 -4.56628 3.73997 7.61213 -4.08096 3.72361 8.14209 -3.60201 3.7018 8.67842 -3.12944 3.67454 9.22114 -2.66325 3.64182 9.77023 -2.20343 3.60366 10.3257 -1.74999 3.56004 10.8875 -1.30293 3.51097 11.4558 -0.862243 3.45644 12.0304 -0.427933 3.39646 12.6113 -1.5697e-14 3.33104 13.1987 0.421556 3.26015 13.7924 0.836736 3.18382 -1.2662 -13.1854 3.31134 -0.85 -12.6049 3.35548 -0.427933 -12.0304 3.39646 4.06227e-13 -11.4616 3.4343 0.4338 -10.8988 3.46898 0.873466 -10.3418 3.50051 1.319 -9.79063 3.52889 1.7704 -9.24537 3.55411 2.22766 -8.70597 3.57618 2.6908 -8.17244 3.5951 3.15979 -7.64478 3.61086 3.63466 -7.12298 3.62347 4.11539 -6.60705 3.63293 4.60199 -6.09698 3.63924 5.09445 -5.59279 3.64239 5.59279 -5.09445 3.64239 6.09698 -4.60199 3.63924 6.60705 -4.11539 3.63293 7.12298 -3.63466 3.62347 7.64478 -3.15979 3.61086 8.17244 -2.6908 3.5951 8.70597 -2.22766 3.57618 9.24537 -1.7704 3.55411 9.79063 -1.319 3.52889 10.3418 -0.873466 3.50051 10.8988 -0.4338 3.46898 11.4616 -3.74766e-14 3.4343 12.0304 0.427933 3.39646 12.6049 0.85 3.35548 13.1854 1.2662 3.31134 -1.70306 -12.5858 3.42823 -1.28533 -12.0181 3.44286 -0.862243 -11.4558 3.45644 -0.4338 -10.8988 3.46898 2.95671e-13 -10.3471 3.48047 0.439156 -9.80083 3.49092 0.883668 -9.25991 3.50033 1.33354 -8.72434 3.50869 1.78876 -8.19412 3.516 2.24934 -7.66926 3.52227 2.71528 -7.14976 3.5275 3.18658 -6.63562 3.53168 3.66323 -6.12683 3.53481 4.14523 -5.62339 3.5369 4.6326 -5.12532 3.53795 5.12532 -4.6326 3.53795 5.62339 -4.14523 3.5369 6.12683 -3.66323 3.53481 6.63562 -3.18658 3.53168 7.14976 -2.71528 3.5275 7.66926 -2.24934 3.52227 8.19412 -1.78876 3.516 8.72434 -1.33354 3.50869 9.25991 -0.883668 3.50033 9.80083 -0.439156 3.49092 10.3471 -5.24703e-14 3.48047 10.8988 0.4338 3.46898 11.4558 0.862243 3.45644 12.0181 1.28533 3.44286 12.5858 1.70306 3.42823 -2.14732 -11.9936 3.53449 -1.72755 -11.4382 3.52229 -1.30293 -10.8875 3.51097 -0.873466 -10.3418 3.50051 -0.439156 -9.80083 3.49092 1.99555e-13 -9.26475 3.48221 0.444002 -8.73352 3.47437 0.892851 -8.20713 3.4674 1.34655 -7.68559 3.4613 1.80509 -7.16889 3.45607 2.26847 -6.65704 3.45171 2.73671 -6.15004 3.44823 3.20979 -5.64788 3.44561 3.68771 -5.15057 3.44387 4.17049 -4.6581 3.443 4.6581 -4.17049 3.443 5.15057 -3.68771 3.44387 5.64788 -3.20979 3.44561 6.15004 -2.73671 3.44823 6.65704 -2.26847 3.45171 7.16889 -1.80509 3.45607 7.68559 -1.34655 3.4613 8.20713 -0.892851 3.4674 8.73352 -0.444002 3.47437 9.26475 -6.15018e-14 3.48221 9.80083 0.439156 3.49092 10.3418 0.873466 3.50051 10.8875 1.30293 3.51097 11.4382 1.72755 3.52229 11.9936 2.14732 3.53449 -2.59897 -11.4088 3.63013 -2.17665 -10.8651 3.59379 -1.74999 -10.3257 3.56004 -1.319 -9.79063 3.52889 -0.883668 -9.25991 3.50033 -0.444002 -8.73352 3.47437 1.17194e-13 -8.21147 3.451 0.448338 -7.69375 3.43023 0.901013 -7.18037 3.41206 1.35802 -6.67133 3.39649 1.81937 -6.16662 3.38351 2.28505 -5.66625 3.37312 2.75507 -5.17021 3.36533 3.22943 -4.67851 3.36014 3.70812 -4.19115 3.35754 4.19115 -3.70812 3.35754 4.67851 -3.22943 3.36014 5.17021 -2.75507 3.36533 5.66625 -2.28505 3.37312 6.16662 -1.81937 3.38351 6.67133 -1.35802 3.39649 7.18037 -0.901013 3.41206 7.69375 -0.448338 3.43023 8.21147 -6.22859e-14 3.451 8.73352 0.444002 3.47437 9.25991 0.883668 3.50033 9.79063 1.319 3.52889 10.3257 1.74999 3.56004 10.8651 2.17665 3.59379 11.4088 2.59897 3.63013 -3.05802 -10.8314 3.71514 -2.63264 -10.2989 3.65734 -2.20343 -9.77023 3.60366 -1.7704 -9.24537 3.55411 -1.33354 -8.72434 3.50869 -0.892851 -8.20713 3.4674 -0.448338 -7.69375 3.43023 5.05274e-14 -7.1842 3.3972 0.452164 -6.67847 3.3683 0.908155 -6.17656 3.34352 1.36797 -5.67849 3.32288 1.83161 -5.18424 3.30636 2.29908 -4.69381 3.29397 2.77038 -4.20722 3.28572 3.2455 -3.72444 3.28159 3.72444 -3.2455 3.28159 4.20722 -2.77038 3.28572 4.69381 -2.29908 3.29397 5.18424 -1.83161 3.30636 5.67849 -1.36797 3.32288 6.17656 -0.908155 3.34352 6.67847 -0.452164 3.3683 7.1842 -5.60905e-14 3.3972 7.69375 0.448338 3.43023 8.20713 0.892851 3.4674 8.72434 1.33354 3.50869 9.24537 1.7704 3.55411 9.77023 2.20343 3.60366 10.2989 2.63264 3.65734 10.8314 3.05802 3.71514 -3.52447 -10.2614 3.78953 -3.09552 -9.73962 3.71294 -2.66325 -9.22114 3.64182 -2.22766 -8.70597 3.57618 -1.78876 -8.19412 3.516 -1.34655 -7.68559 3.4613 -0.901013 -7.18037 3.41206 -0.452164 -6.67847 3.3683 -2.19631e-15 -6.17988 3.33 0.45548 -5.68461 3.29718 0.914276 -5.19266 3.26983 1.37639 -4.70402 3.24795 1.84182 -4.21869 3.23153 2.31056 -3.73669 3.22059 2.78262 -3.25799 3.21512 3.25799 -2.78262 3.21512 3.73669 -2.31056 3.22059 4.21869 -1.84182 3.23153 4.70402 -1.37639 3.24795 5.19266 -0.914276 3.26983 5.68461 -0.45548 3.29718 6.17988 -4.31839e-14 3.33 6.67847 0.452164 3.3683 7.18037 0.901013 3.41206 7.68559 1.34655 3.4613 8.19412 1.78876 3.516 8.70597 2.22766 3.57618 9.22114 2.66325 3.64182 9.73962 3.09552 3.71294 10.2614 3.52447 3.78953 -3.99832 -9.69881 3.85329 -3.56528 -9.18721 3.7606 -3.12944 -8.67842 3.67454 -2.6908 -8.17244 3.5951 -2.24934 -7.66926 3.52227 -1.80509 -7.16889 3.45607 -1.35802 -6.67133 3.39649 -0.908155 -6.17656 3.34352 -0.45548 -5.68461 3.29718 -4.00094e-14 -5.19546 3.25746 0.458286 -4.70912 3.22436 0.919378 -4.22558 3.19788 1.38328 -3.74485 3.17801 1.84998 -3.26692 3.16477 2.31949 -2.7918 3.15815 2.7918 -2.31949 3.15815 3.26692 -1.84998 3.16477 3.74485 -1.38328 3.17801 4.22558 -0.919378 3.19788 4.70912 -0.458286 3.22436 5.19546 -2.15587e-14 3.25746 5.68461 0.45548 3.29718 6.17656 0.908155 3.34352 6.67133 1.35802 3.39649 7.16889 1.80509 3.45607 7.66926 2.24934 3.52227 8.17244 2.6908 3.5951 8.67842 3.12944 3.67454 9.18721 3.56528 3.7606 9.69881 3.99832 3.85329 -4.47956 -9.1436 3.90642 -4.04193 -8.64169 3.80032 -3.60201 -8.14209 3.7018 -3.15979 -7.64478 3.61086 -2.71528 -7.14976 3.5275 -2.26847 -6.65704 3.45171 -1.81937 -6.16662 3.38351 -1.36797 -5.67849 3.32288 -0.914276 -5.19266 3.26983 -0.458286 -4.70912 3.22436 -6.33873e-14 -4.22788 3.18646 0.460582 -3.74893 3.15615 0.923459 -3.27228 3.13342 1.38863 -2.79792 3.11826 1.8561 -2.32586 3.11068 2.32586 -1.8561 3.11068 2.79792 -1.38863 3.11826 3.27228 -0.923459 3.13342 3.74893 -0.460582 3.15615 4.22788 6.82346e-15 3.18646 4.70912 0.458286 3.22436 5.19266 0.914276 3.26983 5.67849 1.36797 3.32288 6.16662 1.81937 3.38351 6.65704 2.26847 3.45171 7.14976 2.71528 3.5275 7.64478 3.15979 3.61086 8.14209 3.60201 3.7018 8.64169 4.04193 3.80032 9.1436 4.47956 3.90642 -4.9682 -8.59578 3.94893 -4.52547 -8.10306 3.8321 -4.08096 -7.61213 3.72361 -3.63466 -7.12298 3.62347 -3.18658 -6.63562 3.53168 -2.73671 -6.15004 3.44823 -2.28505 -5.66625 3.37312 -1.83161 -5.18424 3.30636 -1.37639 -4.70402 3.24795 -0.919378 -4.22558 3.19788 -0.460582 -3.74893 3.15615 -7.15842e-14 -3.27406 3.12277 0.462367 -2.80098 3.09774 0.92652 -2.32969 3.08105 1.39246 -1.86018 3.0727 1.86018 -1.39246 3.0727 2.32969 -0.92652 3.08105 2.80098 -0.462367 3.09774 3.27406 4.30681e-14 3.12277 3.74893 0.460582 3.15615 4.22558 0.919378 3.19788 4.70402 1.37639 3.24795 5.18424 1.83161 3.30636 5.66625 2.28505 3.37312 6.15004 2.73671 3.44823 6.63562 3.18658 3.53168 7.12298 3.63466 3.62347 7.61213 4.08096 3.72361 8.10306 4.52547 3.8321 8.59578 4.9682 3.94893 -5.46423 -8.05537 3.98081 -5.01589 -7.57132 3.85593 -4.56628 -7.08855 3.73997 -4.11539 -6.60705 3.63293 -3.66323 -6.12683 3.53481 -3.20979 -5.64788 3.44561 -2.75507 -5.17021 3.36533 -2.29908 -4.69381 3.29397 -1.84182 -4.21869 3.23153 -1.38328 -3.74485 3.17801 -0.923459 -3.27228 3.13342 -0.462367 -2.80098 3.09774 -6.47978e-14 -2.33097 3.07098 0.463642 -1.86222 3.05314 0.92856 -1.39475 3.04422 1.39475 -0.92856 3.04422 1.86222 -0.463642 3.05314 2.33097 8.61711e-14 3.07098 2.80098 0.462367 3.09774 3.27228 0.923459 3.13342 3.74485 1.38328 3.17801 4.21869 1.84182 3.23153 4.69381 2.29908 3.29397 5.17021 2.75507 3.36533 5.64788 3.20979 3.44561 6.12683 3.66323 3.53481 6.60705 4.11539 3.63293 7.08855 4.56628 3.73997 7.57132 5.01589 3.85593 8.05537 5.46423 3.98081 -5.96767 -7.52234 4.00206 -5.51321 -7.04646 3.87181 -5.05798 -6.57134 3.75087 -4.60199 -6.09698 3.63924 -4.14523 -5.62339 3.5369 -3.68771 -5.15057 3.44387 -3.22943 -4.67851 3.36014 -2.77038 -4.20722 3.28572 -2.31056 -3.73669 3.22059 -1.84998 -3.26692 3.16477 -1.38863 -2.79792 3.11826 -0.92652 -2.32969 3.08105 -0.463642 -1.86222 3.05314 -4.23933e-14 -1.39552 3.03453 0.464408 -0.92958 3.02523 0.92958 -0.464408 3.02523 1.39552 1.38043e-13 3.03453 1.86222 0.463642 3.05314 2.32969 0.92652 3.08105 2.79792 1.38863 3.11826 3.26692 1.84998 3.16477 3.73669 2.31056 3.22059 4.20722 2.77038 3.28572 4.67851 3.22943 3.36014 5.15057 3.68771 3.44387 5.62339 4.14523 3.5369 6.09698 4.60199 3.63924 6.57134 5.05798 3.75087 7.04646 5.51321 3.87181 7.52234 5.96767 4.00206 -6.47849 -6.99672 4.01269 -6.0174 -6.52849 3.87976 -5.55606 -6.06051 3.75633 -5.09445 -5.59279 3.64239 -4.6326 -5.12532 3.53795 -4.17049 -4.6581 3.443 -3.70812 -4.19115 3.35754 -3.2455 -3.72444 3.28159 -2.78262 -3.25799 3.21512 -2.31949 -2.7918 3.15815 -1.8561 -2.32586 3.11068 -1.39246 -1.86018 3.0727 -0.92856 -1.39475 3.04422 -0.464408 -0.92958 3.02523 -4.76278e-15 -0.464663 3.01573 0.464663 1.97456e-13 3.01573 0.92958 0.464408 3.02523 1.39475 0.92856 3.04422 1.86018 1.39246 3.0727 2.32586 1.8561 3.11068 2.7918 2.31949 3.15815 3.25799 2.78262 3.21512 3.72444 3.2455 3.28159 4.19115 3.70812 3.35754 4.6581 4.17049 3.443 5.12532 4.6326 3.53795 5.59279 5.09445 3.64239 6.06051 5.55606 3.75633 6.52849 6.0174 3.87976 6.99672 6.47849 4.01269 -6.99672 -6.47849 4.01269 -6.52849 -6.0174 3.87976 -6.06051 -5.55606 3.75633 -5.59279 -5.09445 3.64239 -5.12532 -4.6326 3.53795 -4.6581 -4.17049 3.443 -4.19115 -3.70812 3.35754 -3.72444 -3.2455 3.28159 -3.25799 -2.78262 3.21512 -2.7918 -2.31949 3.15815 -2.32586 -1.8561 3.11068 -1.86018 -1.39246 3.0727 -1.39475 -0.92856 3.04422 -0.92958 -0.464408 3.02523 -0.464663 1.96579e-13 3.01573 -2.65971e-15 0.464663 3.01573 0.464408 0.92958 3.02523 0.92856 1.39475 3.04422 1.39246 1.86018 3.0727 1.8561 2.32586 3.11068 2.31949 2.7918 3.15815 2.78262 3.25799 3.21512 3.2455 3.72444 3.28159 3.70812 4.19115 3.35754 4.17049 4.6581 3.443 4.6326 5.12532 3.53795 5.09445 5.59279 3.64239 5.55606 6.06051 3.75633 6.0174 6.52849 3.87976 6.47849 6.99672 4.01269 -7.52234 -5.96767 4.00206 -7.04646 -5.51321 3.87181 -6.57134 -5.05798 3.75087 -6.09698 -4.60199 3.63924 -5.62339 -4.14523 3.5369 -5.15057 -3.68771 3.44387 -4.67851 -3.22943 3.36014 -4.20722 -2.77038 3.28572 -3.73669 -2.31056 3.22059 -3.26692 -1.84998 3.16477 -2.79792 -1.38863 3.11826 -2.32969 -0.92652 3.08105 -1.86222 -0.463642 3.05314 -1.39552 1.27287e-13 3.03453 -0.92958 0.464408 3.02523 -0.464408 0.92958 3.02523 -4.39891e-14 1.39552 3.03453 0.463642 1.86222 3.05314 0.92652 2.32969 3.08105 1.38863 2.79792 3.11826 1.84998 3.26692 3.16477 2.31056 3.73669 3.22059 2.77038 4.20722 3.28572 3.22943 4.67851 3.36014 3.68771 5.15057 3.44387 4.14523 5.62339 3.5369 4.60199 6.09698 3.63924 5.05798 6.57134 3.75087 5.51321 7.04646 3.87181 5.96767 7.52234 4.00206 -8.05537 -5.46423 3.98081 -7.57132 -5.01589 3.85593 -7.08855 -4.56628 3.73997 -6.60705 -4.11539 3.63293 -6.12683 -3.66323 3.53481 -5.64788 -3.20979 3.44561 -5.17021 -2.75507 3.36533 -4.69381 -2.29908 3.29397 -4.21869 -1.84182 3.23153 -3.74485 -1.38328 3.17801 -3.27228 -0.923459 3.13342 -2.80098 -0.462367 3.09774 -2.33097 5.52891e-14 3.07098 -1.86222 0.463642 3.05314 -1.39475 0.92856 3.04422 -0.92856 1.39475 3.04422 -0.463642 1.86222 3.05314 -8.04981e-14 2.33097 3.07098 0.462367 2.80098 3.09774 0.923459 3.27228 3.13342 1.38328 3.74485 3.17801 1.84182 4.21869 3.23153 2.29908 4.69381 3.29397 2.75507 5.17021 3.36533 3.20979 5.64788 3.44561 3.66323 6.12683 3.53481 4.11539 6.60705 3.63293 4.56628 7.08855 3.73997 5.01589 7.57132 3.85593 5.46423 8.05537 3.98081 -8.59578 -4.9682 3.94893 -8.10306 -4.52547 3.8321 -7.61213 -4.08096 3.72361 -7.12298 -3.63466 3.62347 -6.63562 -3.18658 3.53168 -6.15004 -2.73671 3.44823 -5.66625 -2.28505 3.37312 -5.18424 -1.83161 3.30636 -4.70402 -1.37639 3.24795 -4.22558 -0.919378 3.19788 -3.74893 -0.460582 3.15615 -3.27406 -1.77636e-14 3.12277 -2.80098 0.462367 3.09774 -2.32969 0.92652 3.08105 -1.86018 1.39246 3.0727 -1.39246 1.86018 3.0727 -0.92652 2.32969 3.08105 -0.462367 2.80098 3.09774 -1.11827e-13 3.27406 3.12277 0.460582 3.74893 3.15615 0.919378 4.22558 3.19788 1.37639 4.70402 3.24795 1.83161 5.18424 3.30636 2.28505 5.66625 3.37312 2.73671 6.15004 3.44823 3.18658 6.63562 3.53168 3.63466 7.12298 3.62347 4.08096 7.61213 3.72361 4.52547 8.10306 3.8321 4.9682 8.59578 3.94893 -9.1436 -4.47956 3.90642 -8.64169 -4.04193 3.80032 -8.14209 -3.60201 3.7018 -7.64478 -3.15979 3.61086 -7.14976 -2.71528 3.5275 -6.65704 -2.26847 3.45171 -6.16662 -1.81937 3.38351 -5.67849 -1.36797 3.32288 -5.19266 -0.914276 3.26983 -4.70912 -0.458286 3.22436 -4.22788 -9.39249e-14 3.18646 -3.74893 0.460582 3.15615 -3.27228 0.923459 3.13342 -2.79792 1.38863 3.11826 -2.32586 1.8561 3.11068 -1.8561 2.32586 3.11068 -1.38863 2.79792 3.11826 -0.923459 3.27228 3.13342 -0.460582 3.74893 3.15615 -1.38139e-13 4.22788 3.18646 0.458286 4.70912 3.22436 0.914276 5.19266 3.26983 1.36797 5.67849 3.32288 1.81937 6.16662 3.38351 2.26847 6.65704 3.45171 2.71528 7.14976 3.5275 3.15979 7.64478 3.61086 3.60201 8.14209 3.7018 4.04193 8.64169 3.80032 4.47956 9.1436 3.90642 -9.69881 -3.99832 3.85329 -9.18721 -3.56528 3.7606 -8.67842 -3.12944 3.67454 -8.17244 -2.6908 3.5951 -7.66926 -2.24934 3.52227 -7.16889 -1.80509 3.45607 -6.67133 -1.35802 3.39649 -6.17656 -0.908155 3.34352 -5.68461 -0.45548 3.29718 -5.19546 -1.7264e-13 3.25746 -4.70912 0.458286 3.22436 -4.22558 0.919378 3.19788 -3.74485 1.38328 3.17801 -3.26692 1.84998 3.16477 -2.7918 2.31949 3.15815 -2.31949 2.7918 3.15815 -1.84998 3.26692 3.16477 -1.38328 3.74485 3.17801 -0.919378 4.22558 3.19788 -0.458286 4.70912 3.22436 -1.58873e-13 5.19546 3.25746 0.45548 5.68461 3.29718 0.908155 6.17656 3.34352 1.35802 6.67133 3.39649 1.80509 7.16889 3.45607 2.24934 7.66926 3.52227 2.6908 8.17244 3.5951 3.12944 8.67842 3.67454 3.56528 9.18721 3.7606 3.99832 9.69881 3.85329 -10.2614 -3.52447 3.78953 -9.73962 -3.09552 3.71294 -9.22114 -2.66325 3.64182 -8.70597 -2.22766 3.57618 -8.19412 -1.78876 3.516 -7.68559 -1.34655 3.4613 -7.18037 -0.901013 3.41206 -6.67847 -0.452164 3.3683 -6.17988 -2.52964e-13 3.33 -5.68461 0.45548 3.29718 -5.19266 0.914276 3.26983 -4.70402 1.37639 3.24795 -4.21869 1.84182 3.23153 -3.73669 2.31056 3.22059 -3.25799 2.78262 3.21512 -2.78262 3.25799 3.21512 -2.31056 3.73669 3.22059 -1.84182 4.21869 3.23153 -1.37639 4.70402 3.24795 -0.914276 5.19266 3.26983 -0.45548 5.68461 3.29718 -1.7486e-13 6.17988 3.33 0.452164 6.67847 3.3683 0.901013 7.18037 3.41206 1.34655 7.68559 3.4613 1.78876 8.19412 3.516 2.22766 8.70597 3.57618 2.66325 9.22114 3.64182 3.09552 9.73962 3.71294 3.52447 10.2614 3.78953 -10.8314 -3.05802 3.71514 -10.2989 -2.63264 3.65734 -9.77023 -2.20343 3.60366 -9.24537 -1.7704 3.55411 -8.72434 -1.33354 3.50869 -8.20713 -0.892851 3.4674 -7.69375 -0.448338 3.43023 -7.1842 -3.36453e-13 3.3972 -6.67847 0.452164 3.3683 -6.17656 0.908155 3.34352 -5.67849 1.36797 3.32288 -5.18424 1.83161 3.30636 -4.69381 2.29908 3.29397 -4.20722 2.77038 3.28572 -3.72444 3.2455 3.28159 -3.2455 3.72444 3.28159 -2.77038 4.20722 3.28572 -2.29908 4.69381 3.29397 -1.83161 5.18424 3.30636 -1.36797 5.67849 3.32288 -0.908155 6.17656 3.34352 -0.452164 6.67847 3.3683 -1.85185e-13 7.1842 3.3972 0.448338 7.69375 3.43023 0.892851 8.20713 3.4674 1.33354 8.72434 3.50869 1.7704 9.24537 3.55411 2.20343 9.77023 3.60366 2.63264 10.2989 3.65734 3.05802 10.8314 3.71514 -11.4088 -2.59897 3.63013 -10.8651 -2.17665 3.59379 -10.3257 -1.74999 3.56004 -9.79063 -1.319 3.52889 -9.25991 -0.883668 3.50033 -8.73352 -0.444002 3.47437 -8.21147 -4.19498e-13 3.451 -7.69375 0.448338 3.43023 -7.18037 0.901013 3.41206 -6.67133 1.35802 3.39649 -6.16662 1.81937 3.38351 -5.66625 2.28505 3.37312 -5.17021 2.75507 3.36533 -4.67851 3.22943 3.36014 -4.19115 3.70812 3.35754 -3.70812 4.19115 3.35754 -3.22943 4.67851 3.36014 -2.75507 5.17021 3.36533 -2.28505 5.66625 3.37312 -1.81937 6.16662 3.38351 -1.35802 6.67133 3.39649 -0.901013 7.18037 3.41206 -0.448338 7.69375 3.43023 -1.90292e-13 8.21147 3.451 0.444002 8.73352 3.47437 0.883668 9.25991 3.50033 1.319 9.79063 3.52889 1.74999 10.3257 3.56004 2.17665 10.8651 3.59379 2.59897 11.4088 3.63013 -11.9936 -2.14732 3.53449 -11.4382 -1.72755 3.52229 -10.8875 -1.30293 3.51097 -10.3418 -0.873466 3.50051 -9.80083 -0.439156 3.49092 -9.26475 -5.04874e-13 3.48221 -8.73352 0.444002 3.47437 -8.20713 0.892851 3.4674 -7.68559 1.34655 3.4613 -7.16889 1.80509 3.45607 -6.65704 2.26847 3.45171 -6.15004 2.73671 3.44823 -5.64788 3.20979 3.44561 -5.15057 3.68771 3.44387 -4.6581 4.17049 3.443 -4.17049 4.6581 3.443 -3.68771 5.15057 3.44387 -3.20979 5.64788 3.44561 -2.73671 6.15004 3.44823 -2.26847 6.65704 3.45171 -1.80509 7.16889 3.45607 -1.34655 7.68559 3.4613 -0.892851 8.20713 3.4674 -0.444002 8.73352 3.47437 -1.89626e-13 9.26475 3.48221 0.439156 9.80083 3.49092 0.873466 10.3418 3.50051 1.30293 10.8875 3.51097 1.72755 11.4382 3.52229 2.14732 11.9936 3.53449 -12.5858 -1.70306 3.42823 -12.0181 -1.28533 3.44286 -11.4558 -0.862243 3.45644 -10.8988 -0.4338 3.46898 -10.3471 -5.90056e-13 3.48047 -9.80083 0.439156 3.49092 -9.25991 0.883668 3.50033 -8.72434 1.33354 3.50869 -8.19412 1.78876 3.516 -7.66926 2.24934 3.52227 -7.14976 2.71528 3.5275 -6.63562 3.18658 3.53168 -6.12683 3.66323 3.53481 -5.62339 4.14523 3.5369 -5.12532 4.6326 3.53795 -4.6326 5.12532 3.53795 -4.14523 5.62339 3.5369 -3.66323 6.12683 3.53481 -3.18658 6.63562 3.53168 -2.71528 7.14976 3.5275 -2.24934 7.66926 3.52227 -1.78876 8.19412 3.516 -1.33354 8.72434 3.50869 -0.883668 9.25991 3.50033 -0.439156 9.80083 3.49092 -1.85185e-13 10.3471 3.48047 0.4338 10.8988 3.46898 0.862243 11.4558 3.45644 1.28533 12.0181 3.44286 1.70306 12.5858 3.42823 -13.1854 -1.2662 3.31134 -12.6049 -0.85 3.35548 -12.0304 -0.427933 3.39646 -11.4616 -6.80581e-13 3.4343 -10.8988 0.4338 3.46898 -10.3418 0.873466 3.50051 -9.79063 1.319 3.52889 -9.24537 1.7704 3.55411 -8.70597 2.22766 3.57618 -8.17244 2.6908 3.5951 -7.64478 3.15979 3.61086 -7.12298 3.63466 3.62347 -6.60705 4.11539 3.63293 -6.09698 4.60199 3.63924 -5.59279 5.09445 3.64239 -5.09445 5.59279 3.64239 -4.60199 6.09698 3.63924 -4.11539 6.60705 3.63293 -3.63466 7.12298 3.62347 -3.15979 7.64478 3.61086 -2.6908 8.17244 3.5951 -2.22766 8.70597 3.57618 -1.7704 9.24537 3.55411 -1.319 9.79063 3.52889 -0.873466 10.3418 3.50051 -0.4338 10.8988 3.46898 -1.74083e-13 11.4616 3.4343 0.427933 12.0304 3.39646 0.85 12.6049 3.35548 1.2662 13.1854 3.31134 -13.7924 -0.836736 3.18382 -13.1987 -0.421556 3.26015 -12.6113 -7.68975e-13 3.33104 -12.0304 0.427933 3.39646 -11.4558 0.862243 3.45644 -10.8875 1.30293 3.51097 -10.3257 1.74999 3.56004 -9.77023 2.20343 3.60366 -9.22114 2.66325 3.64182 -8.67842 3.12944 3.67454 -8.14209 3.60201 3.7018 -7.61213 4.08096 3.72361 -7.08855 4.56628 3.73997 -6.57134 5.05798 3.75087 -6.06051 5.55606 3.75633 -5.55606 6.06051 3.75633 -5.05798 6.57134 3.75087 -4.56628 7.08855 3.73997 -4.08096 7.61213 3.72361 -3.60201 8.14209 3.7018 -3.12944 8.67842 3.67454 -2.66325 9.22114 3.64182 -2.20343 9.77023 3.60366 -1.74999 10.3257 3.56004 -1.30293 10.8875 3.51097 -0.862243 11.4558 3.45644 -0.427933 12.0304 3.39646 -1.56319e-13 12.6113 3.33104 0.421556 13.1987 3.26015 0.836736 13.7924 3.18382 -14.4068 -0.41467 3.04568 -13.7993 -8.57947e-13 3.15689 -13.1987 0.421556 3.26015 -12.6049 0.85 3.35548 -12.0181 1.28533 3.44286 -11.4382 1.72755 3.52229 -10.8651 2.17665 3.59379 -10.2989 2.63264 3.65734 -9.73962 3.09552 3.71294 -9.18721 3.56528 3.7606 -8.64169 4.04193 3.80032 -8.10306 4.52547 3.8321 -7.57132 5.01589 3.85593 -7.04646 5.51321 3.87181 -6.52849 6.0174 3.87976 -6.0174 6.52849 3.87976 -5.51321 7.04646 3.87181 -5.01589 7.57132 3.85593 -4.52547 8.10306 3.8321 -4.04193 8.64169 3.80032 -3.56528 9.18721 3.7606 -3.09552 9.73962 3.71294 -2.63264 10.2989 3.65734 -2.17665 10.8651 3.59379 -1.72755 11.4382 3.52229 -1.28533 12.0181 3.44286 -0.85 12.6049 3.35548 -0.421556 13.1987 3.26015 -1.35891e-13 13.7993 3.15689 0.41467 14.4068 3.04568 -15.0286 -9.46798e-13 2.8969 -14.4068 0.41467 3.04568 -13.7924 0.836736 3.18382 -13.1854 1.2662 3.31134 -12.5858 1.70306 3.42823 -11.9936 2.14732 3.53449 -11.4088 2.59897 3.63013 -10.8314 3.05802 3.71514 -10.2614 3.52447 3.78953 -9.69881 3.99832 3.85329 -9.1436 4.47956 3.90642 -8.59578 4.9682 3.94893 -8.05537 5.46423 3.98081 -7.52234 5.96767 4.00206 -6.99672 6.47849 4.01269 -6.47849 6.99672 4.01269 -5.96767 7.52234 4.00206 -5.46423 8.05537 3.98081 -4.9682 8.59578 3.94893 -4.47956 9.1436 3.90642 -3.99832 9.69881 3.85329 -3.52447 10.2614 3.78953 -3.05802 10.8314 3.71514 -2.59897 11.4088 3.63013 -2.14732 11.9936 3.53449 -1.70306 12.5858 3.42823 -1.2662 13.1854 3.31134 -0.836736 13.7924 3.18382 -0.41467 14.4068 3.04568 -1.06581e-13 15.0286 2.8969 -4.7562e-13 -12.3903 -13.6191 0.454846 -11.9907 -13.4833 0.907721 -11.589 -13.3571 1.35863 -11.1854 -13.2407 1.80756 -10.7799 -13.134 2.25452 -10.3723 -13.037 2.69951 -9.96281 -12.9496 3.14253 -9.55133 -12.872 3.58358 -9.13787 -12.8041 4.02266 -8.72244 -12.7459 4.45977 -8.30504 -12.6974 4.8949 -7.88567 -12.6586 5.32807 -7.46433 -12.6295 5.75926 -7.04102 -12.6101 6.18849 -6.61574 -12.6004 6.61574 -6.18849 -12.6004 7.04102 -5.75926 -12.6101 7.46433 -5.32807 -12.6295 7.88567 -4.8949 -12.6586 8.30504 -4.45977 -12.6974 8.72244 -4.02266 -12.7459 9.13787 -3.58358 -12.8041 9.55133 -3.14253 -12.872 9.96281 -2.69951 -12.9496 10.3723 -2.25452 -13.037 10.7799 -1.80756 -13.134 11.1854 -1.35863 -13.2407 11.589 -0.907721 -13.3571 11.9907 -0.454846 -13.4833 12.3903 -7.27418e-13 -13.6191 -0.454846 -11.9907 -13.4833 -4.36125e-13 -11.5872 -13.3415 0.453011 -11.1819 -13.2099 0.904187 -10.7748 -13.0884 1.35353 -10.3658 -12.977 1.80103 -9.955 -12.8757 2.2467 -9.54235 -12.7846 2.69054 -9.12788 -12.7036 3.13254 -8.71157 -12.6327 3.57271 -8.29342 -12.5719 4.01104 -7.87344 -12.5213 4.44753 -7.45163 -12.4808 4.8822 -7.02797 -12.4504 5.31502 -6.60249 -12.4302 5.74601 -6.17517 -12.4201 6.17517 -5.74601 -12.4201 6.60249 -5.31502 -12.4302 7.02797 -4.8822 -12.4504 7.45163 -4.44753 -12.4808 7.87344 -4.01104 -12.5213 8.29342 -3.57271 -12.5719 8.71157 -3.13254 -12.6327 9.12788 -2.69054 -12.7036 9.54235 -2.2467 -12.7846 9.955 -1.80103 -12.8757 10.3658 -1.35353 -12.977 10.7748 -0.904187 -13.0884 11.1819 -0.453011 -13.2099 11.5872 -6.4828e-13 -13.3415 11.9907 0.454846 -13.4833 -0.907721 -11.589 -13.3571 -0.453011 -11.1819 -13.2099 -4.03437e-13 -10.7731 -13.0731 0.451312 -10.3625 -12.9469 0.900925 -9.95031 -12.8312 1.34884 -9.53637 -12.726 1.79505 -9.12074 -12.6313 2.23957 -8.70341 -12.5472 2.68239 -8.28438 -12.4735 3.1235 -7.86365 -12.4104 3.56292 -7.44123 -12.3578 4.00064 -7.0171 -12.3158 4.43666 -6.59127 -12.2842 4.87098 -6.16375 -12.2632 5.3036 -5.73453 -12.2526 5.73453 -5.3036 -12.2526 6.16375 -4.87098 -12.2632 6.59127 -4.43666 -12.2842 7.0171 -4.00064 -12.3158 7.44123 -3.56292 -12.3578 7.86365 -3.1235 -12.4104 8.28438 -2.68239 -12.4735 8.70341 -2.23957 -12.5472 9.12074 -1.79505 -12.6313 9.53637 -1.34884 -12.726 9.95031 -0.900925 -12.8312 10.3625 -0.451312 -12.9469 10.7731 -5.74572e-13 -13.0731 11.1819 0.453011 -13.2099 11.589 0.907721 -13.3571 -1.35863 -11.1854 -13.2407 -0.904187 -10.7748 -13.0884 -0.451312 -10.3625 -12.9469 -3.72913e-13 -9.94874 -12.8163 0.449749 -9.53338 -12.6966 0.897934 -9.11646 -12.5878 1.34456 -8.69798 -12.4899 1.78962 -8.27793 -12.4028 2.23311 -7.85631 -12.3266 2.67505 -7.43314 -12.2613 3.11541 -7.0084 -12.2069 3.55422 -6.5821 -12.1634 3.99147 -6.15424 -12.1307 4.42715 -5.72481 -12.109 4.86126 -5.29382 -12.0981 5.29382 -4.86126 -12.0981 5.72481 -4.42715 -12.109 6.15424 -3.99147 -12.1307 6.5821 -3.55422 -12.1634 7.0084 -3.11541 -12.2069 7.43314 -2.67505 -12.2613 7.85631 -2.23311 -12.3266 8.27793 -1.78962 -12.4028 8.69798 -1.34456 -12.4899 9.11646 -0.897934 -12.5878 9.53338 -0.449749 -12.6966 9.94874 -5.0793e-13 -12.8163 10.3625 0.451312 -12.9469 10.7748 0.904187 -13.0884 11.1854 1.35863 -13.2407 -1.80756 -10.7799 -13.134 -1.35353 -10.3658 -12.977 -0.900925 -9.95031 -12.8312 -0.449749 -9.53338 -12.6966 -3.45311e-13 -9.11503 -12.5732 0.448322 -8.69526 -12.4611 0.895216 -8.27405 -12.3602 1.34068 -7.85142 -12.2704 1.78472 -7.42736 -12.1919 2.22734 -7.00188 -12.1247 2.66852 -6.57496 -12.0686 3.10828 -6.14662 -12.0237 3.54661 -5.71686 -11.9901 3.98351 -5.28566 -11.9676 4.41899 -4.85304 -11.9564 4.85304 -4.41899 -11.9564 5.28566 -3.98351 -11.9676 5.71686 -3.54661 -11.9901 6.14662 -3.10828 -12.0237 6.57496 -2.66852 -12.0686 7.00188 -2.22734 -12.1247 7.42736 -1.78472 -12.1919 7.85142 -1.34068 -12.2704 8.27405 -0.895216 -12.3602 8.69526 -0.448322 -12.4611 9.11503 -4.44218e-13 -12.5732 9.53338 0.449749 -12.6966 9.95031 0.900925 -12.8312 10.3658 1.35353 -12.977 10.7799 1.80756 -13.134 -2.25452 -10.3723 -13.037 -1.80103 -9.955 -12.8757 -1.34884 -9.53637 -12.726 -0.897934 -9.11646 -12.5878 -0.448322 -8.69526 -12.4611 -3.22928e-13 -8.27276 -12.3459 0.44703 -7.84897 -12.2423 0.892769 -7.4239 -12.1501 1.33722 -6.99753 -12.0695 1.78037 -6.56987 -12.0004 2.22224 -6.14091 -11.9428 2.66281 -5.71067 -11.8968 3.10209 -5.27914 -11.8622 3.54009 -4.84631 -11.8392 3.97678 -4.41219 -11.8276 4.41219 -3.97678 -11.8276 4.84631 -3.54009 -11.8392 5.27914 -3.10209 -11.8622 5.71067 -2.66281 -11.8968 6.14091 -2.22224 -11.9428 6.56987 -1.78037 -12.0004 6.99753 -1.33722 -12.0695 7.4239 -0.892769 -12.1501 7.84897 -0.44703 -12.2423 8.27276 -3.86625e-13 -12.3459 8.69526 0.448322 -12.4611 9.11646 0.897934 -12.5878 9.53637 1.34884 -12.726 9.955 1.80103 -12.8757 10.3723 2.25452 -13.037 -2.69951 -9.96281 -12.9496 -2.2467 -9.54235 -12.7846 -1.79505 -9.12074 -12.6313 -1.34456 -8.69798 -12.4899 -0.895216 -8.27405 -12.3602 -0.44703 -7.84897 -12.2423 -3.05562e-13 -7.42274 -12.1362 0.445875 -6.99535 -12.0418 0.890594 -6.56681 -11.9593 1.33416 -6.13711 -11.8886 1.77657 -5.70625 -11.8296 2.21782 -5.27424 -11.7825 2.65792 -4.84108 -11.7471 3.09686 -4.40676 -11.7235 3.53465 -3.97128 -11.7117 3.97128 -3.53465 -11.7117 4.40676 -3.09686 -11.7235 4.84108 -2.65792 -11.7471 5.27424 -2.21782 -11.7825 5.70625 -1.77657 -11.8296 6.13711 -1.33416 -11.8886 6.56681 -0.890594 -11.9593 6.99535 -0.445875 -12.0418 7.42274 -3.35122e-13 -12.1362 7.84897 0.44703 -12.2423 8.27405 0.895216 -12.3602 8.69798 1.34456 -12.4899 9.12074 1.79505 -12.6313 9.54235 2.2467 -12.7846 9.96281 2.69951 -12.9496 -3.14253 -9.55133 -12.872 -2.69054 -9.12788 -12.7036 -2.23957 -8.70341 -12.5472 -1.78962 -8.27793 -12.4028 -1.34068 -7.85142 -12.2704 -0.892769 -7.4239 -12.1501 -0.445875 -6.99535 -12.0418 -2.89792e-13 -6.56579 -11.9456 0.444855 -6.13521 -11.8614 0.888691 -5.7036 -11.7892 1.33151 -5.27098 -11.729 1.7733 -4.83734 -11.6809 2.21408 -4.40268 -11.6448 2.65384 -3.967 -11.6207 3.09258 -3.5303 -11.6087 3.5303 -3.09258 -11.6087 3.967 -2.65384 -11.6207 4.40268 -2.21408 -11.6448 4.83734 -1.7733 -11.6809 5.27098 -1.33151 -11.729 5.7036 -0.888691 -11.7892 6.13521 -0.444855 -11.8614 6.56579 -2.87905e-13 -11.9456 6.99535 0.445875 -12.0418 7.4239 0.892769 -12.1501 7.85142 1.34068 -12.2704 8.27793 1.78962 -12.4028 8.70341 2.23957 -12.5472 9.12788 2.69054 -12.7036 9.55133 3.14253 -12.872 -3.58358 -9.13787 -12.8041 -3.13254 -8.71157 -12.6327 -2.68239 -8.28438 -12.4735 -2.23311 -7.85631 -12.3266 -1.78472 -7.42736 -12.1919 -1.33722 -6.99753 -12.0695 -0.890594 -6.56681 -11.9593 -0.444855 -6.13521 -11.8614 -2.7862e-13 -5.70272 -11.7757 0.443972 -5.26935 -11.7022 0.88706 -4.8351 -11.641 1.32927 -4.39996 -11.592 1.77059 -3.96394 -11.5553 2.21102 -3.52704 -11.5308 2.65058 -3.08925 -11.5186 3.08925 -2.65058 -11.5186 3.52704 -2.21102 -11.5308 3.96394 -1.77059 -11.5553 4.39996 -1.32927 -11.592 4.8351 -0.88706 -11.641 5.26935 -0.443972 -11.7022 5.70272 -2.47719e-13 -11.7757 6.13521 0.444855 -11.8614 6.56681 0.890594 -11.9593 6.99753 1.33722 -12.0695 7.42736 1.78472 -12.1919 7.85631 2.23311 -12.3266 8.28438 2.68239 -12.4735 8.71157 3.13254 -12.6327 9.13787 3.58358 -12.8041 -4.02266 -8.72244 -12.7459 -3.57271 -8