<?xml version="1.0"?> 
<VTKFile type="StructuredGrid" version="0.1"> 
<StructuredGrid WholeExtent="0 14 0 14 0 29"> 
<Piece Extent="0 14 0 14 0 29"> 
<PointData>
<DataArray type="Float32" Name="efield" format="ascii" NumberOfComponents="3"> 
-1.63913 -0.0101741 -3.09363 -1.81746 -0.000840991 -2.96463 -1.99578 0.00856765 -2.82272 -2.1741 0.0207169 -2.66788 -2.35242 0.0372571 -2.50013 -2.53075 0.0592649 -2.31945 -2.70907 0.0874728 -2.12586 -2.88739 0.122396 -1.91934 -3.13378 0.129296 -1.69762 -3.38017 0.12165 -1.45841 -3.62656 0.104242 -1.20171 -3.87294 0.0807626 -0.92752 -4.11933 0.0541042 -0.635838 -4.36572 0.0265663 -0.326664 -4.61211 2.90122e-16 0 -1.4983 -0.102045 -3.18555 -1.67704 -0.132833 -3.06461 -1.85431 -0.158571 -2.92957 -2.03022 -0.178355 -2.78043 -2.20484 -0.191613 -2.6172 -2.37824 -0.197977 -2.43986 -2.55045 -0.197207 -2.24843 -2.7215 -0.189147 -2.0429 -3.00261 -0.227054 -1.819 -3.27968 -0.270462 -1.57245 -3.55312 -0.316105 -1.30325 -3.82326 -0.36144 -1.01141 -4.09034 -0.404466 -0.696919 -4.3546 -0.443592 -0.359783 -4.61619 -0.47754 7.95737e-18 -1.37386 -0.210316 -3.26333 -1.54902 -0.270229 -3.1492 -1.72179 -0.323003 -3.01999 -1.89227 -0.368432 -2.87567 -2.06049 -0.40641 -2.71626 -2.22652 -0.4369 -2.54175 -2.39037 -0.459906 -2.35215 -2.55208 -0.47546 -2.14745 -2.85172 -0.556848 -1.9217 -3.14435 -0.637247 -1.66894 -3.43054 -0.714502 -1.38917 -3.71076 -0.786936 -1.08239 -3.98539 -0.85324 -0.748603 -4.25474 -0.912387 -0.387806 -4.51907 -0.963569 3.0692e-17 -1.25735 -0.326518 -3.32697 -1.42693 -0.408727 -3.21842 -1.59334 -0.483074 -3.09396 -1.75662 -0.549622 -2.95359 -1.9168 -0.608463 -2.79731 -2.07391 -0.659703 -2.62511 -2.22798 -0.70346 -2.43701 -2.37901 -0.739858 -2.23299 -2.68485 -0.862293 -2.00573 -2.98142 -0.979139 -1.74789 -3.26936 -1.08905 -1.45947 -3.54918 -1.191 -1.14047 -3.82129 -1.28421 -0.79089 -4.08604 -1.36809 -0.410734 -4.34371 -1.44219 6.50486e-17 -1.14412 -0.445993 -3.37646 -1.30696 -0.545951 -3.27225 -1.46585 -0.638014 -3.1515 -1.6208 -0.722339 -3.0142 -1.77185 -0.799084 -2.86035 -1.91901 -0.868406 -2.68995 -2.06233 -0.930463 -2.50301 -2.20182 -0.985413 -2.29952 -2.50429 -1.14582 -2.07108 -2.79586 -1.29745 -1.80929 -3.0771 -1.43954 -1.51414 -3.3485 -1.57156 -1.18564 -3.61049 -1.69311 -0.82378 -3.86341 -1.80392 -0.428567 -4.10756 -1.90383 1.06559e-16 -1.03148 -0.566059 -3.41182 -1.18673 -0.680591 -3.31071 -1.33722 -0.787573 -3.1926 -1.48299 -0.887171 -3.05748 -1.62408 -0.979548 -2.90537 -1.76053 -1.06486 -2.73626 -1.89239 -1.14328 -2.55015 -2.01969 -1.21494 -2.34704 -2.31126 -1.40985 -2.11776 -2.59079 -1.59387 -1.85315 -2.85879 -1.76668 -1.55319 -3.11569 -1.92808 -1.2179 -3.36187 -2.07796 -0.847273 -3.59767 -2.21629 -0.441305 -3.82337 -2.34308 1.50084e-16 -0.917881 -0.685172 -3.43303 -1.06472 -0.812 -3.33378 -1.206 -0.931834 -3.21725 -1.3418 -1.04482 -3.08346 -1.47218 -1.15109 -2.93239 -1.59721 -1.25079 -2.76405 -1.71696 -1.34404 -2.57844 -1.83151 -1.43099 -2.37556 -2.10605 -1.65666 -2.14577 -2.36793 -1.87017 -1.87946 -2.61756 -2.07152 -1.57663 -2.85528 -2.26077 -1.23726 -3.08141 -2.43801 -0.861368 -3.29623 -2.60335 -0.448948 -3.50003 -2.75694 1.90338e-16 -0.80253 -0.80253 -3.4401 -0.939983 -0.939983 -3.34147 -1.07113 -1.07113 -3.22547 -1.19607 -1.19607 -3.09212 -1.31491 -1.31491 -2.9414 -1.42775 -1.42775 -2.77331 -1.53469 -1.53469 -2.58787 -1.63585 -1.63585 -2.38506 -1.8882 -1.8882 -2.15511 -2.12784 -2.12784 -1.88824 -2.35501 -2.35501 -1.58444 -2.56991 -2.56991 -1.24371 -2.77279 -2.77279 -0.866067 -2.96386 -2.96386 -0.451495 -3.14336 -3.14336 2.22313e-16 -0.685172 -0.917881 -3.43303 -0.812 -1.06472 -3.33378 -0.931834 -1.206 -3.21725 -1.04482 -1.3418 -3.08346 -1.15109 -1.47218 -2.93239 -1.25079 -1.59721 -2.76405 -1.34404 -1.71696 -2.57844 -1.43099 -1.83151 -2.37556 -1.65666 -2.10605 -2.14577 -1.87017 -2.36793 -1.87946 -2.07152 -2.61756 -1.57663 -2.26077 -2.85528 -1.23726 -2.43801 -3.08141 -0.861368 -2.60335 -3.29623 -0.448948 -2.75694 -3.50003 2.41641e-16 -0.566059 -1.03148 -3.41182 -0.680591 -1.18673 -3.31071 -0.787573 -1.33722 -3.1926 -0.887171 -1.48299 -3.05748 -0.979548 -1.62408 -2.90537 -1.06486 -1.76053 -2.73626 -1.14328 -1.89239 -2.55015 -1.21494 -2.01969 -2.34704 -1.40985 -2.31126 -2.11776 -1.59387 -2.59079 -1.85315 -1.76668 -2.85879 -1.55319 -1.92808 -3.11569 -1.2179 -2.07796 -3.36187 -0.847273 -2.21629 -3.59767 -0.441305 -2.34308 -3.82337 2.44903e-16 -0.445993 -1.14412 -3.37646 -0.545951 -1.30696 -3.27225 -0.638014 -1.46585 -3.1515 -0.722339 -1.6208 -3.0142 -0.799084 -1.77185 -2.86035 -0.868406 -1.91901 -2.68995 -0.930463 -2.06233 -2.50301 -0.985413 -2.20182 -2.29952 -1.14582 -2.50429 -2.07108 -1.29745 -2.79586 -1.80929 -1.43954 -3.0771 -1.51414 -1.57156 -3.3485 -1.18564 -1.69311 -3.61049 -0.82378 -1.80392 -3.86341 -0.428567 -1.90383 -4.10756 2.29903e-16 -0.326518 -1.25735 -3.32697 -0.408727 -1.42693 -3.21842 -0.483074 -1.59334 -3.09396 -0.549622 -1.75662 -2.95359 -0.608463 -1.9168 -2.79731 -0.659703 -2.07391 -2.62511 -0.70346 -2.22798 -2.43701 -0.739858 -2.37901 -2.23299 -0.862293 -2.68485 -2.00573 -0.979139 -2.98142 -1.74789 -1.08905 -3.26936 -1.45947 -1.191 -3.54918 -1.14047 -1.28421 -3.82129 -0.79089 -1.36809 -4.08604 -0.410734 -1.44219 -4.34371 1.95919e-16 -0.210316 -1.37386 -3.26333 -0.270229 -1.54902 -3.1492 -0.323003 -1.72179 -3.01999 -0.368432 -1.89227 -2.87567 -0.40641 -2.06049 -2.71626 -0.4369 -2.22652 -2.54175 -0.459906 -2.39037 -2.35215 -0.47546 -2.55208 -2.14745 -0.556848 -2.85172 -1.9217 -0.637247 -3.14435 -1.66894 -0.714502 -3.43054 -1.38917 -0.786936 -3.71076 -1.08239 -0.85324 -3.98539 -0.748603 -0.912387 -4.25474 -0.387806 -0.963569 -4.51907 1.43943e-16 -0.102045 -1.4983 -3.18555 -0.132833 -1.67704 -3.06461 -0.158571 -1.85431 -2.92957 -0.178355 -2.03022 -2.78043 -0.191613 -2.20484 -2.6172 -0.197977 -2.37824 -2.43986 -0.197207 -2.55045 -2.24843 -0.189147 -2.7215 -2.0429 -0.227054 -3.00261 -1.819 -0.270462 -3.27968 -1.57245 -0.316105 -3.55312 -1.30325 -0.36144 -3.82326 -1.01141 -0.404466 -4.09034 -0.696919 -0.443592 -4.3546 -0.359783 -0.47754 -4.61619 7.69207e-17 -0.0101741 -1.63913 -3.09363 -0.000840991 -1.81746 -2.96463 0.00856765 -1.99578 -2.82272 0.0207169 -2.1741 -2.66788 0.0372571 -2.35242 -2.50013 0.0592649 -2.53075 -2.31945 0.0874728 -2.70907 -2.12586 0.122396 -2.88739 -1.91934 0.129296 -3.13378 -1.69762 0.12165 -3.38017 -1.45841 0.104242 -3.62656 -1.20171 0.0807626 -3.87294 -0.92752 0.0541042 -4.11933 -0.635838 0.0265663 -4.36572 -0.326664 -8.70365e-16 -4.61211 0 -1.36074 -0.0128661 -2.76861 -1.50027 0.00129349 -2.65251 -1.6398 0.0124098 -2.52489 -1.77933 0.023547 -2.38576 -1.91885 0.0366029 -2.23512 -2.05838 0.0528154 -2.07297 -2.19791 0.0730266 -1.8993 -2.33744 0.0978291 -1.71413 -2.51792 0.104266 -1.51549 -2.69841 0.0989243 -1.30144 -2.87889 0.0855116 -1.07198 -3.05938 0.066889 -0.827102 -3.23986 0.0452991 -0.566814 -3.42035 0.0225244 -0.291113 -3.60083 4.53016e-16 0 -1.24393 -0.0886109 -2.85135 -1.38571 -0.109115 -2.74248 -1.52608 -0.127581 -2.62102 -1.6652 -0.142731 -2.48697 -1.80318 -0.153743 -2.34033 -1.9401 -0.160074 -2.1811 -2.076 -0.161354 -2.00928 -2.21092 -0.157331 -1.82487 -2.41849 -0.184212 -1.62417 -2.62299 -0.215843 -1.40347 -2.82473 -0.249684 -1.16278 -3.02396 -0.283756 -0.902079 -3.22089 -0.3165 -0.621384 -3.41568 -0.346678 -0.320691 -3.60846 -0.373292 5.57679e-18 -1.14078 -0.178014 -2.92135 -1.28093 -0.223635 -2.8186 -1.41886 -0.264838 -2.70235 -1.55472 -0.301113 -2.5726 -1.68861 -0.332144 -2.42935 -1.82061 -0.357733 -2.27259 -1.95078 -0.377763 -2.10234 -2.07915 -0.39217 -1.91858 -2.30135 -0.451556 -1.71613 -2.51822 -0.510637 -1.48981 -2.73021 -0.567728 -1.2396 -2.93767 -0.621517 -0.96552 -3.14091 -0.67098 -0.667559 -3.34016 -0.715312 -0.345719 -3.53563 -0.753877 2.15287e-17 -1.04425 -0.274035 -2.97863 -1.18073 -0.338817 -2.88089 -1.31435 -0.39812 -2.7689 -1.44521 -0.451782 -2.64267 -1.57342 -0.499727 -2.50219 -1.69901 -0.541928 -2.34746 -1.82205 -0.578399 -2.17848 -1.94257 -0.60918 -1.99525 -2.16991 -0.699352 -1.79137 -2.39022 -0.785621 -1.56045 -2.60399 -0.866931 -1.30246 -2.81161 -0.942474 -1.01743 -3.0134 -1.01163 -0.705338 -3.20964 -1.07394 -0.366196 -3.40054 -1.12904 4.56563e-17 -0.950466 -0.372805 -3.02318 -1.08204 -0.452757 -2.92934 -1.21015 -0.526867 -2.82066 -1.33487 -0.595132 -2.69716 -1.45629 -0.657583 -2.55884 -1.57445 -0.714278 -2.40568 -1.68941 -0.765291 -2.2377 -1.8012 -0.81071 -2.05488 -2.02633 -0.929412 -1.8499 -2.24319 -1.0417 -1.61539 -2.45224 -1.14699 -1.35135 -2.65386 -1.24484 -1.0578 -2.84836 -1.33494 -0.734722 -3.03602 -1.41707 -0.382122 -3.21707 -1.49109 7.48239e-17 -0.857202 -0.472095 -3.055 -0.982951 -0.56441 -2.96394 -1.10464 -0.650916 -2.85764 -1.22236 -0.731675 -2.73609 -1.33616 -0.806763 -2.5993 -1.44611 -0.876269 -2.44727 -1.55226 -0.940291 -2.27999 -1.65467 -0.99893 -2.09748 -1.8718 -1.14358 -1.8917 -2.07983 -1.28015 -1.65463 -2.27914 -1.40838 -1.38628 -2.47007 -1.52811 -1.08664 -2.65292 -1.63925 -0.75571 -2.82794 -1.74176 -0.393498 -2.99536 -1.83565 1.05417e-16 -0.763175 -0.570622 -3.0741 -0.882244 -0.67326 -2.9847 -0.996694 -0.770358 -2.87982 -1.10661 -0.861997 -2.75944 -1.21205 -0.948268 -2.62358 -1.3131 -1.02926 -2.47222 -1.40983 -1.10508 -2.30537 -1.5023 -1.17581 -2.12303 -1.70674 -1.34358 -1.91678 -1.90164 -1.50226 -1.67817 -2.08729 -1.65184 -1.40723 -2.26397 -1.79236 -1.10394 -2.43192 -1.92386 -0.768303 -2.59136 -2.04645 -0.400324 -2.74249 -2.16023 1.33713e-16 -0.667718 -0.667718 -3.08046 -0.779157 -0.779157 -2.99162 -0.88547 -0.88547 -2.88721 -0.986742 -0.986742 -2.76723 -1.08306 -1.08306 -2.63167 -1.1745 -1.1745 -2.48054 -1.26115 -1.26115 -2.31383 -1.34309 -1.34309 -2.13155 -1.53091 -1.53091 -1.92514 -1.70918 -1.70918 -1.68602 -1.87806 -1.87806 -1.41421 -2.03772 -2.03772 -1.10971 -2.18835 -2.18835 -0.772501 -2.3301 -2.3301 -0.402599 -2.46315 -2.46315 1.56184e-16 -0.570622 -0.763175 -3.0741 -0.67326 -0.882244 -2.9847 -0.770358 -0.996694 -2.87982 -0.861997 -1.10661 -2.75944 -0.948268 -1.21205 -2.62358 -1.02926 -1.3131 -2.47222 -1.10508 -1.40983 -2.30537 -1.17581 -1.5023 -2.12303 -1.34358 -1.70674 -1.91678 -1.50226 -1.90164 -1.67817 -1.65184 -2.08729 -1.40723 -1.79236 -2.26397 -1.10394 -1.92386 -2.43192 -0.768303 -2.04645 -2.59136 -0.400324 -2.16023 -2.74249 1.69754e-16 -0.472095 -0.857202 -3.055 -0.56441 -0.982951 -2.96394 -0.650916 -1.10464 -2.85764 -0.731675 -1.22236 -2.73609 -0.806763 -1.33616 -2.5993 -0.876269 -1.44611 -2.44727 -0.940291 -1.55226 -2.27999 -0.99893 -1.65467 -2.09748 -1.14358 -1.8718 -1.8917 -1.28015 -2.07983 -1.65463 -1.40838 -2.27914 -1.38628 -1.52811 -2.47007 -1.08664 -1.63925 -2.65292 -0.75571 -1.74176 -2.82794 -0.393498 -1.83565 -2.99536 1.72017e-16 -0.372805 -0.950466 -3.02318 -0.452757 -1.08204 -2.92934 -0.526867 -1.21015 -2.82066 -0.595132 -1.33487 -2.69716 -0.657583 -1.45629 -2.55884 -0.714278 -1.57445 -2.40568 -0.765291 -1.68941 -2.2377 -0.81071 -1.8012 -2.05488 -0.929412 -2.02633 -1.8499 -1.0417 -2.24319 -1.61539 -1.14699 -2.45224 -1.35135 -1.24484 -2.65386 -1.0578 -1.33494 -2.84836 -0.734722 -1.41707 -3.03602 -0.382122 -1.49109 -3.21707 1.61435e-16 -0.274035 -1.04425 -2.97863 -0.338817 -1.18073 -2.88089 -0.39812 -1.31435 -2.7689 -0.451782 -1.44521 -2.64267 -0.499727 -1.57342 -2.50219 -0.541928 -1.69901 -2.34746 -0.578399 -1.82205 -2.17848 -0.60918 -1.94257 -1.99525 -0.699352 -2.16991 -1.79137 -0.785621 -2.39022 -1.56045 -0.866931 -2.60399 -1.30246 -0.942474 -2.81161 -1.01743 -1.01163 -3.0134 -0.705338 -1.07394 -3.20964 -0.366196 -1.12904 -3.40054 1.37512e-16 -0.178014 -1.14078 -2.92135 -0.223635 -1.28093 -2.8186 -0.264838 -1.41886 -2.70235 -0.301113 -1.55472 -2.5726 -0.332144 -1.68861 -2.42935 -0.357733 -1.82061 -2.27259 -0.377763 -1.95078 -2.10234 -0.39217 -2.07915 -1.91858 -0.451556 -2.30135 -1.71613 -0.510637 -2.51822 -1.48981 -0.567728 -2.73021 -1.2396 -0.621517 -2.93767 -0.96552 -0.67098 -3.14091 -0.667559 -0.715312 -3.34016 -0.345719 -0.753877 -3.53563 1.00968e-16 -0.0886109 -1.24393 -2.85135 -0.109115 -1.38571 -2.74248 -0.127581 -1.52608 -2.62102 -0.142731 -1.6652 -2.48697 -0.153743 -1.80318 -2.34033 -0.160074 -1.9401 -2.1811 -0.161354 -2.076 -2.00928 -0.157331 -2.21092 -1.82487 -0.184212 -2.41849 -1.62417 -0.215843 -2.62299 -1.40347 -0.249684 -2.82473 -1.16278 -0.283756 -3.02396 -0.902079 -0.3165 -3.22089 -0.621384 -0.346678 -3.41568 -0.320691 -0.373292 -3.60846 5.39085e-17 -0.0128661 -1.36074 -2.76861 0.00129349 -1.50027 -2.65251 0.0124098 -1.6398 -2.52489 0.023547 -1.77933 -2.38576 0.0366029 -1.91885 -2.23512 0.0528154 -2.05838 -2.07297 0.0730266 -2.19791 -1.8993 0.0978291 -2.33744 -1.71413 0.104266 -2.51792 -1.51549 0.0989243 -2.69841 -1.30144 0.0855116 -2.87889 -1.07198 0.066889 -3.05938 -0.827102 0.0452991 -3.23986 -0.566814 0.0225244 -3.42035 -0.291113 -4.53016e-16 -3.60083 0 -1.11053 -0.01499 -2.4436 -1.21575 0.00308226 -2.34038 -1.32097 0.0155143 -2.22706 -1.42619 0.0256724 -2.10364 -1.5314 0.0356415 -1.97011 -1.63662 0.0467817 -1.82648 -1.74184 0.060018 -1.67275 -1.84706 0.0760016 -1.50891 -1.96991 0.0819734 -1.33336 -2.09276 0.0786338 -1.14447 -2.21561 0.0687422 -0.942244 -2.33846 0.0544271 -0.726685 -2.46131 0.0373572 -0.497791 -2.58415 0.0188589 -0.255563 -2.707 -1.70282e-16 0 -1.01531 -0.0762814 -2.51714 -1.1243 -0.0878766 -2.42034 -1.23196 -0.099997 -2.31246 -1.33847 -0.111064 -2.1935 -1.44397 -0.120056 -2.06346 -1.54855 -0.126286 -1.92233 -1.65227 -0.129281 -1.77013 -1.75519 -0.128709 -1.60685 -1.89838 -0.145986 -1.42935 -2.03934 -0.167326 -1.2345 -2.17831 -0.190828 -1.0223 -2.31548 -0.215014 -0.792749 -2.45099 -0.238715 -0.54585 -2.58498 -0.261001 -0.2816 -2.71754 -0.281127 3.71529e-18 -0.931289 -0.148761 -2.57938 -1.04031 -0.181808 -2.488 -1.14728 -0.21278 -2.38472 -1.2524 -0.240922 -2.26954 -1.35581 -0.26574 -2.14244 -1.45761 -0.286903 -2.00344 -1.55788 -0.304195 -1.85253 -1.65667 -0.317469 -1.68971 -1.81104 -0.357626 -1.51057 -1.96154 -0.398055 -1.31068 -2.10853 -0.437489 -1.09004 -2.25227 -0.474942 -0.84865 -2.39298 -0.509639 -0.586515 -2.53085 -0.54097 -0.303631 -2.66601 -0.568454 1.43605e-17 -0.852699 -0.226677 -2.6303 -0.959705 -0.276021 -2.54336 -1.06414 -0.32196 -2.44385 -1.16619 -0.364143 -2.33175 -1.26596 -0.40235 -2.20706 -1.36354 -0.436447 -2.0698 -1.45901 -0.466358 -1.91995 -1.55243 -0.49205 -1.75751 -1.71098 -0.553986 -1.57702 -1.86446 -0.613484 -1.37301 -2.01323 -0.669746 -1.14546 -2.15759 -0.722157 -0.894387 -2.29778 -0.770245 -0.619786 -2.43401 -0.81365 -0.321657 -2.56643 -0.852099 3.04815e-17 -0.776384 -0.306868 -2.6699 -0.880087 -0.369034 -2.58642 -0.980777 -0.427159 -2.48983 -1.07859 -0.481099 -2.38013 -1.17364 -0.530783 -2.25733 -1.26599 -0.576182 -2.12141 -1.35572 -0.6173 -1.97238 -1.44287 -0.654163 -1.81024 -1.60021 -0.73634 -1.62871 -1.7516 -0.81418 -1.42148 -1.89738 -0.887228 -1.18857 -2.03784 -0.955149 -0.92996 -2.17321 -1.0177 -0.645663 -2.30369 -1.0747 -0.335677 -2.42947 -1.12604 4.99857e-17 -0.700522 -0.387511 -2.69819 -0.799957 -0.460036 -2.61717 -0.895972 -0.528287 -2.52268 -0.98868 -0.592236 -2.41469 -1.07817 -0.651887 -2.29323 -1.16452 -0.707268 -2.15827 -1.24778 -0.758423 -2.00984 -1.32803 -0.805409 -1.84791 -1.47991 -0.906018 -1.66563 -1.62526 -1.00101 -1.45611 -1.76437 -1.09019 -1.21936 -1.8975 -1.17341 -0.955369 -2.02485 -1.25061 -0.664148 -2.14662 -1.32175 -0.345691 -2.26297 -1.38682 7.04524e-17 -0.624065 -0.46756 -2.71516 -0.71836 -0.548627 -2.63563 -0.808875 -0.625442 -2.54238 -0.8957 -0.698036 -2.43543 -0.978915 -0.766455 -2.31477 -1.05859 -0.830753 -2.18039 -1.13479 -0.890993 -2.03231 -1.20759 -0.947242 -1.87051 -1.35058 -1.06428 -1.68778 -1.48676 -1.17491 -1.47689 -1.61635 -1.27912 -1.23783 -1.73954 -1.37693 -0.970615 -1.8565 -1.46837 -0.675238 -1.96741 -1.55351 -0.3517 -2.07242 -1.63242 8.93842e-17 -0.546468 -0.546468 -2.72082 -0.634696 -0.634696 -2.64178 -0.718855 -0.718855 -2.54895 -0.799011 -0.799011 -2.44234 -0.875231 -0.875231 -2.32195 -0.947582 -0.947582 -2.18777 -1.01613 -1.01613 -2.0398 -1.08094 -1.08094 -1.87804 -1.21219 -1.21219 -1.69516 -1.33666 -1.33666 -1.48381 -1.45446 -1.45446 -1.24399 -1.56572 -1.56572 -0.975697 -1.67056 -1.67056 -0.678935 -1.7691 -1.7691 -0.353702 -1.86147 -1.86147 1.04414e-16 -0.46756 -0.624065 -2.71516 -0.548627 -0.71836 -2.63563 -0.625442 -0.808875 -2.54238 -0.698036 -0.8957 -2.43543 -0.766455 -0.978915 -2.31477 -0.830753 -1.05859 -2.18039 -0.890993 -1.13479 -2.03231 -0.947242 -1.20759 -1.87051 -1.06428 -1.35058 -1.68778 -1.17491 -1.48676 -1.47689 -1.27912 -1.61635 -1.23783 -1.37693 -1.73954 -0.970615 -1.46837 -1.8565 -0.675238 -1.55351 -1.96741 -0.3517 -1.63242 -2.07242 1.13476e-16 -0.387511 -0.700522 -2.69819 -0.460036 -0.799957 -2.61717 -0.528287 -0.895972 -2.52268 -0.592236 -0.98868 -2.41469 -0.651887 -1.07817 -2.29323 -0.707268 -1.16452 -2.15827 -0.758423 -1.24778 -2.00984 -0.805409 -1.32803 -1.84791 -0.906018 -1.47991 -1.66563 -1.00101 -1.62526 -1.45611 -1.09019 -1.76437 -1.21936 -1.17341 -1.8975 -0.955369 -1.25061 -2.02485 -0.664148 -1.32175 -2.14662 -0.345691 -1.38682 -2.26297 1.14962e-16 -0.306868 -0.776384 -2.6699 -0.369034 -0.880087 -2.58642 -0.427159 -0.980777 -2.48983 -0.481099 -1.07859 -2.38013 -0.530783 -1.17364 -2.25733 -0.576182 -1.26599 -2.12141 -0.6173 -1.35572 -1.97238 -0.654163 -1.44287 -1.81024 -0.73634 -1.60021 -1.62871 -0.81418 -1.7516 -1.42148 -0.887228 -1.89738 -1.18857 -0.955149 -2.03784 -0.92996 -1.0177 -2.17321 -0.645663 -1.0747 -2.30369 -0.335677 -1.12604 -2.42947 1.07845e-16 -0.226677 -0.852699 -2.6303 -0.276021 -0.959705 -2.54336 -0.32196 -1.06414 -2.44385 -0.364143 -1.16619 -2.33175 -0.40235 -1.26596 -2.20706 -0.436447 -1.36354 -2.0698 -0.466358 -1.45901 -1.91995 -0.49205 -1.55243 -1.75751 -0.553986 -1.71098 -1.57702 -0.613484 -1.86446 -1.37301 -0.669746 -2.01323 -1.14546 -0.722157 -2.15759 -0.894387 -0.770245 -2.29778 -0.619786 -0.81365 -2.43401 -0.321657 -0.852099 -2.56643 9.18068e-17 -0.148761 -0.931289 -2.57938 -0.181808 -1.04031 -2.488 -0.21278 -1.14728 -2.38472 -0.240922 -1.2524 -2.26954 -0.26574 -1.35581 -2.14244 -0.286903 -1.45761 -2.00344 -0.304195 -1.55788 -1.85253 -0.317469 -1.65667 -1.68971 -0.357626 -1.81104 -1.51057 -0.398055 -1.96154 -1.31068 -0.437489 -2.10853 -1.09004 -0.474942 -2.25227 -0.84865 -0.509639 -2.39298 -0.586515 -0.54097 -2.53085 -0.303631 -0.568454 -2.66601 6.73495e-17 -0.0762814 -1.01531 -2.51714 -0.0878766 -1.1243 -2.42034 -0.099997 -1.23196 -2.31246 -0.111064 -1.33847 -2.1935 -0.120056 -1.44397 -2.06346 -0.126286 -1.54855 -1.92233 -0.129281 -1.65227 -1.77013 -0.128709 -1.75519 -1.60685 -0.145986 -1.89838 -1.42935 -0.167326 -2.03934 -1.2345 -0.190828 -2.17831 -1.0223 -0.215014 -2.31548 -0.792749 -0.238715 -2.45099 -0.54585 -0.261001 -2.58498 -0.2816 -0.281127 -2.71754 3.59142e-17 -0.01499 -1.11053 -2.4436 0.00308226 -1.21575 -2.34038 0.0155143 -1.32097 -2.22706 0.0256724 -1.42619 -2.10364 0.0356415 -1.5314 -1.97011 0.0467817 -1.63662 -1.82648 0.060018 -1.74184 -1.67275 0.0760016 -1.84706 -1.50891 0.0819734 -1.96991 -1.33336 0.0786338 -2.09276 -1.14447 0.0687422 -2.21561 -0.942244 0.0544271 -2.33846 -0.726685 0.0373572 -2.46131 -0.497791 0.0188589 -2.58415 -0.255563 -6.81129e-16 -2.707 0 -0.8885 -0.0165459 -2.11858 -0.963894 0.00452534 -2.02826 -1.03929 0.0178811 -1.92923 -1.11468 0.027093 -1.82152 -1.19007 0.034373 -1.70511 -1.26547 0.0411638 -1.58 -1.34086 0.0484471 -1.4462 -1.41625 0.0569135 -1.3037 -1.48973 0.0624171 -1.15123 -1.56321 0.0607785 -0.987496 -1.6367 0.0539338 -0.81251 -1.71018 0.0433769 -0.626267 -1.78366 0.0302787 -0.428768 -1.85714 0.01557 -0.220012 -1.93062 1.21444e-16 0 -0.812446 -0.0650561 -2.18294 -0.892817 -0.0691164 -2.09821 -0.971927 -0.0758182 -2.00391 -1.05 -0.0833554 -1.90003 -1.12719 -0.0905523 -1.78659 -1.20359 -0.0966144 -1.66357 -1.27928 -0.100989 -1.53098 -1.35431 -0.103282 -1.38882 -1.44227 -0.112377 -1.23452 -1.52873 -0.124911 -1.06552 -1.61386 -0.139539 -0.881822 -1.6978 -0.155214 -0.68342 -1.78065 -0.171108 -0.470315 -1.8625 -0.186563 -0.242508 -1.94342 -0.201045 2.31039e-18 -0.745383 -0.122558 -2.2374 -0.827163 -0.144747 -2.1574 -0.907055 -0.166831 -2.06709 -0.985307 -0.187859 -1.96647 -1.06209 -0.207196 -1.85553 -1.13751 -0.22441 -1.73428 -1.21168 -0.239201 -1.60272 -1.28465 -0.25136 -1.46084 -1.38077 -0.275057 -1.305 -1.47431 -0.2995 -1.13155 -1.56551 -0.323787 -0.940471 -1.65456 -0.34721 -0.73178 -1.74161 -0.369215 -0.50547 -1.8268 -0.389362 -0.261544 -1.91022 -0.407303 8.94729e-18 -0.682704 -0.184444 -2.28196 -0.763865 -0.22034 -2.20583 -0.842739 -0.254595 -2.11879 -0.91954 -0.286704 -2.02082 -0.994424 -0.316333 -1.91194 -1.0675 -0.34326 -1.79214 -1.13886 -0.367337 -1.66141 -1.20857 -0.388469 -1.51977 -1.30804 -0.426196 -1.36267 -1.40412 -0.462731 -1.18556 -1.49709 -0.497498 -0.988457 -1.58714 -0.530052 -0.771347 -1.67444 -0.560047 -0.534234 -1.75915 -0.58722 -0.277118 -1.84137 -0.611366 1.90173e-17 -0.621875 -0.24818 -2.31662 -0.701104 -0.294783 -2.2435 -0.777737 -0.338888 -2.159 -0.851952 -0.380242 -2.0631 -0.923879 -0.418686 -1.95581 -0.993618 -0.45412 -1.83714 -1.06125 -0.486491 -1.70707 -1.12683 -0.515772 -1.56561 -1.22593 -0.566605 -1.40752 -1.32108 -0.614874 -1.22758 -1.41252 -0.660247 -1.02578 -1.50045 -0.702474 -0.802121 -1.58504 -0.741372 -0.556605 -1.66644 -0.776805 -0.289232 -1.74475 -0.808683 3.12155e-17 -0.561437 -0.312307 -2.34137 -0.637745 -0.367469 -2.27041 -0.711207 -0.419686 -2.18772 -0.781962 -0.468855 -2.0933 -0.850117 -0.514921 -1.98715 -0.915757 -0.55786 -1.86928 -0.978954 -0.597673 -1.73968 -1.03977 -0.634376 -1.59835 -1.13558 -0.697171 -1.43956 -1.22709 -0.756466 -1.25759 -1.31449 -0.812108 -1.05244 -1.39796 -0.863992 -0.824103 -1.47765 -0.912053 -0.572585 -1.55369 -0.956255 -0.297884 -1.6262 -0.996585 4.40244e-17 -0.500551 -0.375986 -2.35622 -0.573063 -0.438102 -2.28655 -0.642541 -0.497088 -2.20495 -0.709082 -0.552935 -2.11142 -0.77277 -0.605651 -2.00596 -0.833674 -0.655259 -1.88856 -0.891858 -0.701792 -1.75924 -0.947379 -0.745291 -1.61799 -1.03758 -0.818744 -1.45878 -1.12331 -0.888105 -1.2756 -1.20474 -0.953353 -1.06843 -1.28198 -1.01449 -0.837292 -1.35516 -1.07154 -0.582173 -1.42441 -1.12453 -0.303075 -1.4898 -1.1735 5.58746e-17 -0.438779 -0.438779 -2.36117 -0.506602 -0.506602 -2.29193 -0.571284 -0.571284 -2.21069 -0.632877 -0.632877 -2.11746 -0.691432 -0.691432 -2.01222 -0.747002 -0.747002 -1.89499 -0.799637 -0.799637 -1.76576 -0.849389 -0.849389 -1.62454 -0.932043 -0.932043 -1.46519 -1.0103 -1.0103 -1.2816 -1.08423 -1.08423 -1.07377 -1.15391 -1.15391 -0.841688 -1.21944 -1.21944 -0.585369 -1.28088 -1.28088 -0.304806 -1.33831 -1.33831 6.52771e-17 -0.375986 -0.500551 -2.35622 -0.438102 -0.573063 -2.28655 -0.497088 -0.642541 -2.20495 -0.552935 -0.709082 -2.11142 -0.605651 -0.77277 -2.00596 -0.655259 -0.833674 -1.88856 -0.701792 -0.891858 -1.75924 -0.745291 -0.947379 -1.61799 -0.818744 -1.03758 -1.45878 -0.888105 -1.12331 -1.2756 -0.953353 -1.20474 -1.06843 -1.01449 -1.28198 -0.837292 -1.07154 -1.35516 -0.582173 -1.12453 -1.42441 -0.303075 -1.1735 -1.4898 7.09348e-17 -0.312307 -0.561437 -2.34137 -0.367469 -0.637745 -2.27041 -0.419686 -0.711207 -2.18772 -0.468855 -0.781962 -2.0933 -0.514921 -0.850117 -1.98715 -0.55786 -0.915757 -1.86928 -0.597673 -0.978954 -1.73968 -0.634376 -1.03977 -1.59835 -0.697171 -1.13558 -1.43956 -0.756466 -1.22709 -1.25759 -0.812108 -1.31449 -1.05244 -0.863992 -1.39796 -0.824103 -0.912053 -1.47765 -0.572585 -0.956255 -1.55369 -0.297884 -0.996585 -1.6262 7.18378e-17 -0.24818 -0.621875 -2.31662 -0.294783 -0.701104 -2.2435 -0.338888 -0.777737 -2.159 -0.380242 -0.851952 -2.0631 -0.418686 -0.923879 -1.95581 -0.45412 -0.993618 -1.83714 -0.486491 -1.06125 -1.70707 -0.515772 -1.12683 -1.56561 -0.566605 -1.22593 -1.40752 -0.614874 -1.32108 -1.22758 -0.660247 -1.41252 -1.02578 -0.702474 -1.50045 -0.802121 -0.741372 -1.58504 -0.556605 -0.776805 -1.66644 -0.289232 -0.808683 -1.74475 6.73483e-17 -0.184444 -0.682704 -2.28196 -0.22034 -0.763865 -2.20583 -0.254595 -0.842739 -2.11879 -0.286704 -0.91954 -2.02082 -0.316333 -0.994424 -1.91194 -0.34326 -1.0675 -1.79214 -0.367337 -1.13886 -1.66141 -0.388469 -1.20857 -1.51977 -0.426196 -1.30804 -1.36267 -0.462731 -1.40412 -1.18556 -0.497498 -1.49709 -0.988457 -0.530052 -1.58714 -0.771347 -0.560047 -1.67444 -0.534234 -0.58722 -1.75915 -0.277118 -0.611366 -1.84137 5.7278e-17 -0.122558 -0.745383 -2.2374 -0.144747 -0.827163 -2.1574 -0.166831 -0.907055 -2.06709 -0.187859 -0.985307 -1.96647 -0.207196 -1.06209 -1.85553 -0.22441 -1.13751 -1.73428 -0.239201 -1.21168 -1.60272 -0.25136 -1.28465 -1.46084 -0.275057 -1.38077 -1.305 -0.2995 -1.47431 -1.13155 -0.323787 -1.56551 -0.940471 -0.34721 -1.65456 -0.73178 -0.369215 -1.74161 -0.50547 -0.389362 -1.8268 -0.261544 -0.407303 -1.91022 4.19622e-17 -0.0650561 -0.812446 -2.18294 -0.0691164 -0.892817 -2.09821 -0.0758182 -0.971927 -2.00391 -0.0833554 -1.05 -1.90003 -0.0905523 -1.12719 -1.78659 -0.0966144 -1.20359 -1.66357 -0.100989 -1.27928 -1.53098 -0.103282 -1.35431 -1.38882 -0.112377 -1.44227 -1.23452 -0.124911 -1.52873 -1.06552 -0.139539 -1.61386 -0.881822 -0.155214 -1.6978 -0.68342 -0.171108 -1.78065 -0.470315 -0.186563 -1.8625 -0.242508 -0.201045 -1.94342 2.23336e-17 -0.0165459 -0.8885 -2.11858 0.00452534 -0.963894 -2.02826 0.0178811 -1.03929 -1.92923 0.027093 -1.11468 -1.82152 0.034373 -1.19007 -1.70511 0.0411638 -1.26547 -1.58 0.0484471 -1.34086 -1.4462 0.0569135 -1.41625 -1.3037 0.0624171 -1.48973 -1.15123 0.0607785 -1.56321 -0.987496 0.0539338 -1.6367 -0.81251 0.0433769 -1.71018 -0.626267 0.0302787 -1.78366 -0.428768 0.01557 -1.85714 -0.220012 -3.64333e-16 -1.93062 0 -0.694654 -0.0175337 -1.79357 -0.744706 0.00562272 -1.71613 -0.794758 0.0195104 -1.63141 -0.84481 0.0278089 -1.5394 -0.894862 0.0327972 -1.4401 -0.944914 0.0359618 -1.33351 -0.994966 0.0383138 -1.21964 -1.04502 0.0405649 -1.09848 -1.0774 0.0455975 -0.969093 -1.10978 0.0453582 -0.830523 -1.14216 0.0410864 -0.682775 -1.17454 0.0337383 -0.525849 -1.20692 0.0240634 -0.359745 -1.2393 0.0126574 -0.184461 -1.27168 2.39983e-16 0 -0.635324 -0.054935 -1.84874 -0.691249 -0.0528349 -1.77608 -0.745997 -0.0550449 -1.69535 -0.799811 -0.0596042 -1.60656 -0.852852 -0.0652321 -1.50971 -0.905228 -0.0710592 -1.4048 -0.957016 -0.0764773 -1.29183 -1.00827 -0.0810498 -1.17079 -1.05016 -0.0833849 -1.0397 -1.09116 -0.0885974 -0.896548 -1.13139 -0.0958149 -0.741346 -1.17094 -0.104356 -0.57409 -1.20987 -0.113682 -0.39478 -1.24824 -0.123361 -0.203417 -1.2861 -0.133046 1.29961e-18 -0.583063 -0.0994049 -1.89543 -0.641489 -0.112452 -1.8268 -0.698191 -0.126989 -1.74946 -0.753446 -0.141922 -1.6634 -0.807444 -0.156514 -1.56862 -0.860321 -0.170254 -1.46512 -0.912174 -0.182783 -1.35291 -0.963078 -0.19384 -1.23197 -1.01055 -0.203848 -1.09944 -1.05652 -0.214973 -0.952415 -1.10114 -0.226621 -0.790906 -1.14453 -0.238323 -0.614909 -1.1868 -0.24971 -0.424426 -1.22801 -0.260488 -0.219456 -1.26825 -0.270421 5.04933e-18 -0.534261 -0.147335 -1.93363 -0.593208 -0.171774 -1.86831 -0.650128 -0.196023 -1.79373 -0.705272 -0.219464 -1.7099 -0.758818 -0.241677 -1.61682 -0.810895 -0.262368 -1.51448 -0.861601 -0.281336 -1.40288 -0.911011 -0.298437 -1.28203 -0.961096 -0.315981 -1.14832 -1.00922 -0.33336 -0.998125 -1.05556 -0.350186 -0.831454 -1.10024 -0.366159 -0.648307 -1.14338 -0.381042 -0.448682 -1.18506 -0.39465 -0.232579 -1.22536 -0.40684 1.0757e-17 -0.486937 -0.196742 -1.96333 -0.54509 -0.230003 -1.90059 -0.601028 -0.262055 -1.82816 -0.654954 -0.29256 -1.74607 -0.707021 -0.32129 -1.6543 -0.757342 -0.348091 -1.55286 -0.806007 -0.372862 -1.44175 -0.853085 -0.395538 -1.32097 -0.903486 -0.420206 -1.18634 -0.951622 -0.443787 -1.03368 -0.997648 -0.46605 -0.862992 -1.04169 -0.486821 -0.674283 -1.08386 -0.505966 -0.467547 -1.12425 -0.523387 -0.242786 -1.16293 -0.53901 1.76851e-17 -0.439946 -0.246483 -1.98455 -0.496314 -0.286709 -1.92364 -0.550348 -0.325112 -1.85276 -0.602203 -0.361532 -1.7719 -0.651999 -0.395864 -1.68108 -0.69983 -0.428046 -1.58028 -0.745772 -0.45804 -1.46952 -0.789887 -0.485833 -1.34878 -0.838822 -0.517039 -1.21349 -0.885312 -0.546512 -1.05907 -0.929489 -0.57414 -0.885519 -0.971464 -0.599844 -0.692837 -1.01133 -0.623569 -0.481023 -1.04917 -0.64528 -0.250077 -1.08506 -0.664956 2.49684e-17 -0.392632 -0.295901 -1.99729 -0.446353 -0.341683 -1.93748 -0.497693 -0.385295 -1.86752 -0.546752 -0.426693 -1.7874 -0.593616 -0.465855 -1.69714 -0.638352 -0.502779 -1.59673 -0.68102 -0.537474 -1.48617 -0.721674 -0.569956 -1.36547 -0.767729 -0.606985 -1.22978 -0.81129 -0.641856 -1.07431 -0.852453 -0.674546 -0.899036 -0.891299 -0.705046 -0.703969 -0.927904 -0.733358 -0.489108 -0.962333 -0.759495 -0.254451 -0.994648 -0.783474 3.17084e-17 -0.344653 -0.344653 -2.00153 -0.394874 -0.394874 -1.94209 -0.442756 -0.442756 -1.87243 -0.488339 -0.488339 -1.79257 -0.53166 -0.53166 -1.7025 -0.572757 -0.572757 -1.60222 -0.61167 -0.61167 -1.49173 -0.648437 -0.648437 -1.37103 -0.690462 -0.690462 -1.23521 -0.730083 -0.730083 -1.07939 -0.767345 -0.767345 -0.903541 -0.802292 -0.802292 -0.70768 -0.834967 -0.834967 -0.491803 -0.865416 -0.865416 -0.255909 -0.893683 -0.893683 3.70515e-17 -0.295901 -0.392632 -1.99729 -0.341683 -0.446353 -1.93748 -0.385295 -0.497693 -1.86752 -0.426693 -0.546752 -1.7874 -0.465855 -0.593616 -1.69714 -0.502779 -0.638352 -1.59673 -0.537474 -0.68102 -1.48617 -0.569956 -0.721674 -1.36547 -0.606985 -0.767729 -1.22978 -0.641856 -0.81129 -1.07431 -0.674546 -0.852453 -0.899036 -0.705046 -0.891299 -0.703969 -0.733358 -0.927904 -0.489108 -0.759495 -0.962333 -0.254451 -0.783474 -0.994648 4.02549e-17 -0.246483 -0.439946 -1.98455 -0.286709 -0.496314 -1.92364 -0.325112 -0.550348 -1.85276 -0.361532 -0.602203 -1.7719 -0.395864 -0.651999 -1.68108 -0.428046 -0.69983 -1.58028 -0.45804 -0.745772 -1.46952 -0.485833 -0.789887 -1.34878 -0.517039 -0.838822 -1.21349 -0.546512 -0.885312 -1.05907 -0.57414 -0.929489 -0.885519 -0.599844 -0.971464 -0.692837 -0.623569 -1.01133 -0.481023 -0.64528 -1.04917 -0.250077 -0.664956 -1.08506 4.07428e-17 -0.196742 -0.486937 -1.96333 -0.230003 -0.54509 -1.90059 -0.262055 -0.601028 -1.82816 -0.29256 -0.654954 -1.74607 -0.32129 -0.707021 -1.6543 -0.348091 -0.757342 -1.55286 -0.372862 -0.806007 -1.44175 -0.395538 -0.853085 -1.32097 -0.420206 -0.903486 -1.18634 -0.443787 -0.951622 -1.03368 -0.46605 -0.997648 -0.862992 -0.4868