<?xml version="1.0"?> 
<VTKFile type="StructuredGrid" version="0.1"> 
<StructuredGrid WholeExtent="0 29 0 29 0 29"> 
<Piece Extent="0 29 0 29 0 29"> 
<PointData>
<DataArray type="Float32" Name="efield" format="ascii" NumberOfComponents="3"> 
-7.24733 0.236293 84.0506 -7.36513 0.0309944 81.4817 -7.48294 -0.128293 78.8715 -7.60074 -0.25044 76.2198 -7.71855 -0.342288 73.5266 -7.83635 -0.409198 70.7921 -7.95415 -0.45543 68.0161 -8.07196 -0.48441 65.1988 -8.18976 -0.498928 62.34 -8.30757 -0.501277 59.4398 -8.42537 -0.493359 56.4981 -8.54318 -0.476766 53.5151 -8.66098 -0.452838 50.4906 -8.77879 -0.422715 47.4247 -8.89659 -0.38737 44.3174 -8.91615 -0.379131 41.1773 -8.83746 -0.394629 38.0562 -8.75877 -0.401711 34.9628 -8.68008 -0.401008 31.8971 -8.6014 -0.39307 28.859 -8.52271 -0.378383 25.8486 -8.44402 -0.357377 22.8659 -8.36533 -0.330432 19.9108 -8.28664 -0.297888 16.9834 -8.20795 -0.260047 14.0837 -8.12926 -0.217181 11.2116 -8.05058 -0.169534 8.3672 -7.97189 -0.117325 5.55047 -7.8932 -0.0607541 2.7614 -7.81451 1.96627e-15 0 -6.97366 0.446146 85.9879 -7.11913 0.303221 83.4862 -7.26211 0.195356 80.9328 -7.40301 0.116009 78.3275 -7.54212 0.0600457 75.6704 -7.6797 0.0233748 72.9615 -7.81593 0.0027004 70.2007 -7.95098 -0.00466376 67.3881 -8.08499 -0.000928328 64.5237 -8.21806 0.012071 61.6075 -8.35028 0.0327974 58.6394 -8.48174 0.0599548 55.6195 -8.61249 0.0924425 52.5478 -8.7426 0.12932 49.4243 -8.87211 0.169779 46.2489 -8.90299 0.1781 43.0307 -8.83544 0.157767 39.824 -8.76763 0.144555 36.6378 -8.69958 0.137913 33.472 -8.63133 0.137358 30.3267 -8.56291 0.142461 27.2019 -8.49434 0.152839 24.0976 -8.42563 0.168154 21.0137 -8.35681 0.1881 17.9503 -8.28788 0.212406 14.9074 -8.21888 0.240824 11.885 -8.1498 0.273135 8.88302 -8.08066 0.309136 5.90154 -8.01147 0.348647 2.94053 -7.94224 0.391501 0 -6.71739 0.673395 87.7867 -6.88361 0.582564 85.3475 -7.04579 0.518465 82.8469 -7.20451 0.47619 80.2847 -7.36023 0.451825 77.661 -7.51334 0.442215 74.9759 -7.66414 0.444784 72.2292 -7.81288 0.457412 69.4211 -7.95978 0.478338 66.5514 -8.105 0.506088 63.6203 -8.2487 0.539417 60.6277 -8.391 0.577269 57.5736 -8.53202 0.618744 54.4581 -8.67185 0.663066 51.281 -8.81056 0.709566 48.0424 -8.85064 0.719166 44.7518 -8.79248 0.695415 41.4655 -8.73385 0.677641 38.1931 -8.67479 0.665366 34.9344 -8.61537 0.658168 31.6896 -8.55561 0.65567 28.4585 -8.49556 0.657537 25.2413 -8.43526 0.663469 22.0378 -8.37473 0.673196 18.8482 -8.31402 0.686475 15.6723 -8.25313 0.703087 12.5103 -8.1921 0.722833 9.36199 -8.13094 0.745532 6.22753 -8.06968 0.771021 3.10686 -8.00832 0.79915 0 -6.47315 0.912675 89.4472 -6.65491 0.865946 87.0657 -6.83164 0.839493 84.6137 -7.00402 0.829583 82.0913 -7.17257 0.833203 79.4985 -7.33774 0.847894 76.8353 -7.49988 0.871632 74.1017 -7.6593 0.902735 71.2976 -7.81626 0.939797 68.4232 -7.97096 0.98163 65.4784 -8.12358 1.02723 62.4631 -8.2743 1.07573 59.3774 -8.42322 1.12641 56.2214 -8.57048 1.17862 52.9949 -8.71618 1.23181 49.698 -8.76359 1.24359 46.3405 -8.71328 1.21754 42.9808 -8.66231 1.19646 39.6288 -8.61076 1.17993 36.2844 -8.5587 1.1676 32.9476 -8.50617 1.15912 29.6185 -8.45324 1.15422 26.297 -8.39994 1.15263 22.9832 -8.34632 1.15411 19.677 -8.29242 1.15845 16.3784 -8.23826 1.16546 13.0874 -8.18389 1.17495 9.80412 -8.12932 1.18678 6.52844 -8.07458 1.20079 3.2604 -8.0197 1.21685 0 -6.23706 1.1601 90.9694 -6.43031 1.15111 88.6406 -6.61793 1.15732 86.2333 -6.8006 1.17584 83.7474 -6.97887 1.20436 81.1829 -7.1532 1.24093 78.5398 -7.32399 1.28397 75.8181 -7.49154 1.33213 73.0178 -7.65613 1.38429 70.139 -7.818 1.4395 67.1816 -7.97735 1.49695 64.1455 -8.13433 1.55593 61.0309 -8.28911 1.61585 57.8378 -8.44181 1.6762 54.566 -8.59255 1.73652 51.2156 -8.64562 1.75115 47.7967 -8.60178 1.72367 44.3698 -8.55715 1.70027 40.9448 -8.5118 1.6806 37.5218 -8.46582 1.66434 34.1008 -8.41926 1.65122 30.6818 -8.37219 1.64098 27.2648 -8.32466 1.63339 23.8497 -8.27672 1.62826 20.4367 -8.22841 1.62538 17.0256 -8.17977 1.62461 13.6165 -8.13083 1.62577 10.2094 -8.08163 1.62875 6.80428 -8.03221 1.63339 3.40115 -7.98257 1.6396 0 -6.00625 1.41281 92.3531 -6.20778 1.43639 90.0724 -6.40331 1.47111 87.7057 -6.5935 1.51474 85.2529 -6.77891 1.56548 82.7141 -6.95998 1.62179 80.0893 -7.13711 1.68243 77.3785 -7.31061 1.74634 74.5817 -7.48076 1.8126 71.6988 -7.6478 1.88046 68.7299 -7.81194 1.94927 65.675 -7.97334 2.01846 62.5341 -8.13218 2.08756 59.3072 -8.28857 2.15613 55.9942 -8.44264 2.22383 52.5953 -8.49992 2.24179 49.1206 -8.46135 2.21356 45.6325 -8.42188 2.18862 42.1412 -8.38159 2.16668 38.6468 -8.34056 2.14748 35.1492 -8.29887 2.13078 31.6484 -8.25658 2.11636 28.1446 -8.21374 2.10403 24.6375 -8.17041 2.09361 21.1273 -8.12664 2.08495 17.614 -8.08246 2.07789 14.0975 -8.03791 2.07232 10.5778 -7.99304 2.06811 7.05504 -7.94787 2.06515 3.5291 -7.90244 2.06335 0 -5.77856 1.66864 93.5985 -5.98574 1.72052 91.361 -6.18673 1.78026 89.0308 -6.38214 1.84615 86.6079 -6.5725 1.91676 84.0922 -6.75824 1.99092 81.4839 -6.93974 2.06762 78.7828 -7.11731 2.14603 75.9891 -7.29121 2.22543 73.1026 -7.4617 2.30521 70.1234 -7.62895 2.38485 67.0516 -7.79316 2.46392 63.887 -7.95447 2.54201 60.6297 -8.11303 2.6188 57.2797 -8.26894 2.694 53.837 -8.32917 2.71561 50.3121 -8.29482 2.68712 46.7689 -8.25949 2.66125 43.218 -8.22327 2.63774 39.6592 -8.18623 2.61637 36.0927 -8.14845 2.59695 32.5184 -8.11 2.57929 28.9364 -8.07093 2.56323 25.3465 -8.0313 2.54862 21.7489 -7.99115 2.53533 18.1435 -7.95054 2.52324 14.5304 -7.90949 2.51224 10.9094 -7.86806 2.50223 7.28073 -7.82627 2.49311 3.64425 -7.78415 2.4848 0 -5.55234 1.92595 94.7055 -5.76299 2.00253 92.5064 -5.96735 2.08432 90.2087 -6.16602 2.16998 87.8123 -6.35946 2.25842 85.3172 -6.54809 2.3487 82.7235 -6.73226 2.44006 80.0312 -6.91226 2.53182 77.2401 -7.08835 2.62342 74.3505 -7.26076 2.7144 71.3621 -7.42967 2.80434 68.2752 -7.59526 2.89288 65.0895 -7.75769 2.97973 61.8052 -7.91707 3.06462 58.4223 -8.07353 3.14733 54.9407 -8.1356 3.17279 51.3713 -8.10457 3.14442 47.7791 -8.07251 3.11806 44.1751 -8.03949 3.09352 40.5592 -8.00561 3.0706 36.9314 -7.97093 3.04914 33.2917 -7.93552 3.029 29.6402 -7.89944 3.01003 25.9768 -7.86274 2.99212 22.3014 -7.82546 2.97516 18.6142 -7.78766 2.95904 14.9152 -7.74938 2.94368 11.2042 -7.71064 2.92899 7.48134 -7.67149 2.9149 3.74661 -7.63196 2.90133 0 -5.32634 2.18347 95.6742 -5.53857 2.2817 93.5087 -5.74452 2.38296 91.2394 -5.94473 2.48623 88.8662 -6.13963 2.59066 86.3891 -6.32959 2.69552 83.8082 -6.51493 2.80022 81.1234 -6.69593 2.90426 78.3348 -6.87283 3.00719 75.4423 -7.04583 3.10864 72.446 -7.21512 3.2083 69.3458 -7.38086 3.3059 66.1417 -7.54319 3.40121 62.8338 -7.70223 3.49402 59.4221 -7.8581 3.58416 55.9064 -7.92107 3.61358 52.298 -7.89258 3.58558 48.663 -7.86303 3.55909 45.0126 -7.8325 3.53391 41.3467 -7.80107 3.50992 37.6653 -7.76881 3.48696 33.9684 -7.73578 3.46493 30.256 -7.70203 3.44372 26.5282 -7.66761 3.42322 22.7849 -7.63258 3.40335 19.0261 -7.59698 3.38403 15.2518 -7.56085 3.36518 11.4621 -7.52421 3.34674 7.65687 -7.48712 3.32865 3.83618 -7.44959 3.31085 0 -5.09958 2.44022 96.5044 -5.31172 2.55748 94.3678 -5.51769 2.67597 92.1228 -5.71793 2.79491 89.7695 -5.91284 2.91367 87.3079 -6.10275 3.03171 84.7379 -6.28795 3.14857 82.0597 -6.46868 3.26386 79.2731 -6.64516 3.37726 76.3782 -6.81759 3.48848 73.375 -6.98612 3.5973 70.2635 -7.15091 3.70351 67.0436 -7.31209 3.80693 63.7155 -7.46977 3.90742 60.279 -7.62407 4.00485 56.7342 -7.6871 4.03823 53.0923 -7.66049 4.0108 49.4206 -7.63282 3.9844 45.7304 -7.60417 3.9589 42.0216 -7.5746 3.93419 38.2943 -7.54418 3.91016 34.5484 -7.51297 3.88672 30.7839 -7.48102 3.86378 27.0009 -7.44838 3.84127 23.1993 -7.41509 3.81911 19.3791 -7.38119 3.79725 15.5404 -7.34672 3.77563 11.6832 -7.31172 3.75419 7.80733 -7.27621 3.73289 3.91295 -7.24023 3.71169 0 -4.87131 2.69547 97.1963 -5.08187 2.82945 95.0836 -5.28641 2.96317 92.859 -5.48533 3.09607 90.5222 -5.67895 3.22767 88.0735 -5.86756 3.35759 85.5127 -6.05142 3.48548 82.8399 -6.23075 3.61107 80.055 -6.40572 3.73413 77.1581 -6.57652 3.85443 74.1492 -6.74329 3.97183 71.0282 -6.90616 4.08617 67.7952 -7.06526 4.19734 64.4502 -7.22068 4.30522 60.9931 -7.37254 4.40974 57.424 -7.43492 4.44705 53.7543 -7.40964 4.42027 50.052 -7.38332 4.39412 46.3286 -7.35603 4.36852 42.5841 -7.32784 4.34336 38.8185 -7.2988 4.31857 35.0317 -7.26897 4.29408 31.2238 -7.23839 4.26983 27.3948 -7.2071 4.24576 23.5446 -7.17515 4.22181 19.6733 -7.14258 4.19795 15.7809 -7.10941 4.17412 11.8674 -7.07568 4.15029 7.93271 -7.04141 4.12643 3.97692 -7.00665 4.10251 0 -4.64096 2.94864 97.7498 -4.84855 3.09731 95.6564 -5.05034 3.24448 93.4479 -5.24666 3.38977 91.1244 -5.43779 3.53285 88.686 -5.62397 3.67345 86.1325 -5.80541 3.81134 83.464 -5.98228 3.94632 80.6805 -6.15476 4.07823 77.782 -6.32298 4.20694 74.7685 -6.48708 4.33234 71.64 -6.64718 4.45433 68.3965 -6.80337 4.57283 65.038 -6.95575 4.68779 61.5644 -7.10441 4.79914 57.9759 -7.16554 4.84028 54.2838 -7.14111 4.81419 50.5571 -7.11569 4.78839 46.8072 -7.08935 4.76282 43.0341 -7.06214 4.7374 39.2378 -7.03411 4.71209 35.4183 -7.0053 4.68683 31.5757 -6.97575 4.66158 27.7099 -6.94551 4.6363 23.8209 -6.9146 4.61095 19.9087 -6.88306 4.5855 15.9733 -6.85092 4.55993 12.0148 -6.81821 4.5342 8.03302 -6.78495 4.5083 4.0281 -6.75117 4.4822 0 -4.4081 3.1993 98.1649 -4.61138 3.36084 96.0859 -4.80917 3.51986 93.8896 -5.00171 3.67612 91.5761 -5.18922 3.82941 89.1453 -5.37189 3.97957 86.5974 -5.54989 4.12645 83.9321 -5.72336 4.26995 81.1497 -5.89243 4.40995 78.25 -6.05722 4.54639 75.233 -6.21784 4.6792 72.0989 -6.37437 4.80834 68.8474 -6.52692 4.93376 65.4788 -6.67555 5.05543 61.9929 -6.82035 5.17333 58.3898 -6.87971 5.21814 54.681 -6.85573 5.19273 50.9359 -6.83086 5.16731 47.1661 -6.80513 5.14184 43.3716 -6.77858 5.11629 39.5523 -6.75127 5.09061 35.7083 -6.72322 5.06477 31.8396 -6.69446 5.03876 27.9462 -6.66503 5.01253 24.0281 -6.63495 4.98608 20.0852 -6.60426 4.95938 16.1176 -6.57297 4.93242 12.1253 -6.54111 4.90518 8.10825 -6.50871 4.87765 4.06649 -6.47577 4.84982 0 -4.17244 3.44716 98.4417 -4.3701 3.61991 96.3722 -4.56265 3.7893 94.1841 -4.75026 3.95521 91.8772 -4.93307 4.11753 89.4516 -5.11122 4.27619 86.9073 -5.28483 4.43112 84.2442 -5.45399 4.58228 81.4624 -5.6188 4.72962 78.5619 -5.77936 4.87312 75.5427 -5.93574 5.01276 72.4048 -6.08802 5.14852 69.1481 -6.23625 5.2804 65.7727 -6.38052 5.4084 62.2786 -6.52087 5.53251 58.6657 -6.57799 5.58081 54.9458 -6.55415 5.556 51.1884 -6.52952 5.53094 47.4054 -6.50414 5.5056 43.5966 -6.47802 5.47997 39.762 -6.45121 5.45401 35.9017 -6.42372 5.42773 32.0156 -6.39558 5.40111 28.1038 -6.36681 5.37413 24.1662 -6.33744 5.34679 20.2029 -6.30748 5.31909 16.2138 -6.27695 5.29101 12.199 -6.24587 5.26256 8.1584 -6.21425 5.23372 4.09208 -6.18212 5.2045 0 -3.93377 3.69201 98.5801 -4.1245 3.87446 96.5154 -4.3106 4.05286 94.3313 -4.49214 4.22717 92.0278 -4.66919 4.3974 89.6047 -4.84183 4.56354 87.0622 -5.01011 4.7256 84.4003 -5.17411 4.88359 81.6188 -5.33386 5.03752 78.7179 -5.48944 5.1874 75.6975 -5.64089 5.33326 72.5577 -5.78825 5.47511 69.2984 -5.93157 5.61297 65.9196 -6.07091 5.74686 62.4214 -6.2063 5.87682 58.8037 -6.26079 5.92836 55.0782 -6.23682 5.90405 51.3147 -6.21221 5.87928 47.525 -6.18696 5.85403 43.7091 -6.1611 5.82831 39.8668 -6.13464 5.80211 35.9983 -6.10759 5.77545 32.1036 -6.07997 5.74831 28.1825 -6.05179 5.7207 24.2353 -6.02306 5.69263 20.2617 -5.9938 5.6641 16.2619 -5.96401 5.6351 12.2358 -5.9337 5.60565 8.18348 -5.9029 5.57575 4.10487 -5.87161 5.5454 0 -3.69201 3.93377 98.5801 -3.87446 4.1245 96.5154 -4.05286 4.3106 94.3313 -4.22717 4.49214 92.0278 -4.3974 4.66919 89.6047 -4.56354 4.84183 87.0622 -4.7256 5.01011 84.4003 -4.88359 5.17411 81.6188 -5.03752 5.33386 78.7179 -5.1874 5.48944 75.6975 -5.33326 5.64089 72.5577 -5.47511 5.78825 69.2984 -5.61297 5.93157 65.9196 -5.74686 6.07091 62.4214 -5.87682 6.2063 58.8037 -5.92836 6.26079 55.0782 -5.90405 6.23682 51.3147 -5.87928 6.21221 47.525 -5.85403 6.18696 43.7091 -5.82831 6.1611 39.8668 -5.80211 6.13464 35.9983 -5.77545 6.10759 32.1036 -5.74831 6.07997 28.1825 -5.7207 6.05179 24.2353 -5.69263 6.02306 20.2617 -5.6641 5.9938 16.2619 -5.6351 5.96401 12.2358 -5.60565 5.9337 8.18348 -5.57575 5.9029 4.10487 -5.5454 5.87161 0 -3.44716 4.17244 98.4417 -3.61991 4.3701 96.3722 -3.7893 4.56265 94.1841 -3.95521 4.75026 91.8772 -4.11753 4.93307 89.4516 -4.27619 5.11122 86.9073 -4.43112 5.28483 84.2442 -4.58228 5.45399 81.4624 -4.72962 5.6188 78.5619 -4.87312 5.77936 75.5427 -5.01276 5.93574 72.4048 -5.14852 6.08802 69.1481 -5.2804 6.23625 65.7727 -5.4084 6.38052 62.2786 -5.53251 6.52087 58.6657 -5.58081 6.57799 54.9458 -5.556 6.55415 51.1884 -5.53094 6.52952 47.4054 -5.5056 6.50414 43.5966 -5.47997 6.47802 39.762 -5.45401 6.45121 35.9017 -5.42773 6.42372 32.0156 -5.40111 6.39558 28.1038 -5.37413 6.36681 24.1662 -5.34679 6.33744 20.2029 -5.31909 6.30748 16.2138 -5.29101 6.27695 12.199 -5.26256 6.24587 8.1584 -5.23372 6.21425 4.09208 -5.2045 6.18212 0 -3.1993 4.4081 98.1649 -3.36084 4.61138 96.0859 -3.51986 4.80917 93.8896 -3.67612 5.00171 91.5761 -3.82941 5.18922 89.1453 -3.97957 5.37189 86.5974 -4.12645 5.54989 83.9321 -4.26995 5.72336 81.1497 -4.40995 5.89243 78.25 -4.54639 6.05722 75.233 -4.6792 6.21784 72.0989 -4.80834 6.37437 68.8474 -4.93376 6.52692 65.4788 -5.05543 6.67555 61.9929 -5.17333 6.82035 58.3898 -5.21814 6.87971 54.681 -5.19273 6.85573 50.9359 -5.16731 6.83086 47.1661 -5.14184 6.80513 43.3716 -5.11629 6.77858 39.5523 -5.09061 6.75127 35.7083 -5.06477 6.72322 31.8396 -5.03876 6.69446 27.9462 -5.01253 6.66503 24.0281 -4.98608 6.63495 20.0852 -4.95938 6.60426 16.1176 -4.93242 6.57297 12.1253 -4.90518 6.54111 8.10825 -4.87765 6.50871 4.06649 -4.84982 6.47577 0 -2.94864 4.64096 97.7498 -3.09731 4.84855 95.6564 -3.24448 5.05034 93.4479 -3.38977 5.24666 91.1244 -3.53285 5.43779 88.686 -3.67345 5.62397 86.1325 -3.81134 5.80541 83.464 -3.94632 5.98228 80.6805 -4.07823 6.15476 77.782 -4.20694 6.32298 74.7685 -4.33234 6.48708 71.64 -4.45433 6.64718 68.3965 -4.57283 6.80337 65.038 -4.68779 6.95575 61.5644 -4.79914 7.10441 57.9759 -4.84028 7.16554 54.2838 -4.81419 7.14111 50.5571 -4.78839 7.11569 46.8072 -4.76282 7.08935 43.0341 -4.7374 7.06214 39.2378 -4.71209 7.03411 35.4183 -4.68683 7.0053 31.5757 -4.66158 6.97575 27.7099 -4.6363 6.94551 23.8209 -4.61095 6.9146 19.9087 -4.5855 6.88306 15.9733 -4.55993 6.85092 12.0148 -4.5342 6.81821 8.03302 -4.5083 6.78495 4.0281 -4.4822 6.75117 0 -2.69547 4.87131 97.1963 -2.82945 5.08187 95.0836 -2.96317 5.28641 92.859 -3.09607 5.48533 90.5222 -3.22767 5.67895 88.0735 -3.35759 5.86756 85.5127 -3.48548 6.05142 82.8399 -3.61107 6.23075 80.055 -3.73413 6.40572 77.1581 -3.85443 6.57652 74.1492 -3.97183 6.74329 71.0282 -4.08617 6.90616 67.7952 -4.19734 7.06526 64.4502 -4.30522 7.22068 60.9931 -4.40974 7.37254 57.424 -4.44705 7.43492 53.7543 -4.42027 7.40964 50.052 -4.39412 7.38332 46.3286 -4.36852 7.35603 42.5841 -4.34336 7.32784 38.8185 -4.31857 7.2988 35.0317 -4.29408 7.26897 31.2238 -4.26983 7.23839 27.3948 -4.24576 7.2071 23.5446 -4.22181 7.17515 19.6733 -4.19795 7.14258 15.7809 -4.17412 7.10941 11.8674 -4.15029 7.07568 7.93271 -4.12643 7.04141 3.97692 -4.10251 7.00665 0 -2.44022 5.09958 96.5044 -2.55748 5.31172 94.3678 -2.67597 5.51769 92.1228 -2.79491 5.71793 89.7695 -2.91367 5.91284 87.3079 -3.03171 6.10275 84.7379 -3.14857 6.28795 82.0597 -3.26386 6.46868 79.2731 -3.37726 6.64516 76.3782 -3.48848 6.81759 73.375 -3.5973 6.98612 70.2635 -3.70351 7.15091 67.0436 -3.80693 7.31209 63.7155 -3.90742 7.46977 60.279 -4.00485 7.62407 56.7342 -4.03823 7.6871 53.0923 -4.0108 7.66049 49.4206 -3.9844 7.63282 45.7304 -3.9589 7.60417 42.0216 -3.93419 7.5746 38.2943 -3.91016 7.54418 34.5484 -3.88672 7.51297 30.7839 -3.86378 7.48102 27.0009 -3.84127 7.44838 23.1993 -3.81911 7.41509 19.3791 -3.79725 7.38119 15.5404 -3.77563 7.34672 11.6832 -3.75419 7.31172 7.80733 -3.73289 7.27621 3.91295 -3.71169 7.24023 0 -2.18347 5.32634 95.6742 -2.2817 5.53857 93.5087 -2.38296 5.74452 91.2394 -2.48623 5.94473 88.8662 -2.59066 6.13963 86.3891 -2.69552 6.32959 83.8082 -2.80022 6.51493 81.1234 -2.90426 6.69593 78.3348 -3.00719 6.87283 75.4423 -3.10864 7.04583 72.446 -3.2083 7.21512 69.3458 -3.3059 7.38086 66.1417 -3.40121 7.54319 62.8338 -3.49402 7.70223 59.4221 -3.58416 7.8581 55.9064 -3.61358 7.92107 52.298 -3.58558 7.89258 48.663 -3.55909 7.86303 45.0126 -3.53391 7.8325 41.3467 -3.50992 7.80107 37.6653 -3.48696 7.76881 33.9684 -3.46493 7.73578 30.256 -3.44372 7.70203 26.5282 -3.42322 7.66761 22.7849 -3.40335 7.63258 19.0261 -3.38403 7.59698 15.2518 -3.36518 7.56085 11.4621 -3.34674 7.52421 7.65687 -3.32865 7.48712 3.83618 -3.31085 7.44959 0 -1.92595 5.55234 94.7055 -2.00253 5.76299 92.5064 -2.08432 5.96735 90.2087 -2.16998 6.16602 87.8123 -2.25842 6.35946 85.3172 -2.3487 6.54809 82.7235 -2.44006 6.73226 80.0312 -2.53182 6.91226 77.2401 -2.62342 7.08835 74.3505 -2.7144 7.26076 71.3621 -2.80434 7.42967 68.2752 -2.89288 7.59526 65.0895 -2.97973 7.75769 61.8052 -3.06462 7.91707 58.4223 -3.14733 8.07353 54.9407 -3.17279 8.1356 51.3713 -3.14442 8.10457 47.7791 -3.11806 8.07251 44.1751 -3.09352 8.03949 40.5592 -3.0706 8.00561 36.9314 -3.04914 7.97093 33.2917 -3.029 7.93552 29.6402 -3.01003 7.89944 25.9768 -2.99212 7.86274 22.3014 -2.97516 7.82546 18.6142 -2.95904 7.78766 14.9152 -2.94368 7.74938 11.2042 -2.92899 7.71064 7.48134 -2.9149 7.67149 3.74661 -2.90133 7.63196 0 -1.66864 5.77856 93.5985 -1.72052 5.98574 91.361 -1.78026 6.18673 89.0308 -1.84615 6.38214 86.6079 -1.91676 6.5725 84.0922 -1.99092 6.75824 81.4839 -2.06762 6.93974 78.7828 -2.14603 7.11731 75.9891 -2.22543 7.29121 73.1026 -2.30521 7.4617 70.1234 -2.38485 7.62895 67.0516 -2.46392 7.79316 63.887 -2.54201 7.95447 60.6297 -2.6188 8.11303 57.2797 -2.694 8.26894 53.837 -2.71561 8.32917 50.3121 -2.68712 8.29482 46.7689 -2.66125 8.25949 43.218 -2.63774 8.22327 39.6592 -2.61637 8.18623 36.0927 -2.59695 8.14845 32.5184 -2.57929 8.11 28.9364 -2.56323 8.07093 25.3465 -2.54862 8.0313 21.7489 -2.53533 7.99115 18.1435 -2.52324 7.95054 14.5304 -2.51224 7.90949 10.9094 -2.50223 7.86806 7.28073 -2.49311 7.82627 3.64425 -2.4848 7.78415 0 -1.41281 6.00625 92.3531 -1.43639 6.20778 90.0724 -1.47111 6.40331 87.7057 -1.51474 6.5935 85.2529 -1.56548 6.77891 82.7141 -1.62179 6.95998 80.0893 -1.68243 7.13711 77.3785 -1.74634 7.31061 74.5817 -1.8126 7.48076 71.6988 -1.88046 7.6478 68.7299 -1.94927 7.81194 65.675 -2.01846 7.97334 62.5341 -2.08756 8.13218 59.3072 -2.15613 8.28857 55.9942 -2.22383 8.44264 52.5953 -2.24179 8.49992 49.1206 -2.21356 8.46135 45.6325 -2.18862 8.42188 42.1412 -2.16668 8.38159 38.6468 -2.14748 8.34056 35.1492 -2.13078 8.29887 31.6484 -2.11636 8.25658 28.1446 -2.10403 8.21374 24.6375 -2.09361 8.17041 21.1273 -2.08495 8.12664 17.614 -2.07789 8.08246 14.0975 -2.07232 8.03791 10.5778 -2.06811 7.99304 7.05504 -2.06515 7.94787 3.5291 -2.06335 7.90244 0 -1.1601 6.23706 90.9694 -1.15111 6.43031 88.6406 -1.15732 6.61793 86.2333 -1.17584 6.8006 83.7474 -1.20436 6.97887 81.1829 -1.24093 7.1532 78.5398 -1.28397 7.32399 75.8181 -1.33213 7.49154 73.0178 -1.38429 7.65613 70.139 -1.4395 7.818 67.1816 -1.49695 7.97735 64.1455 -1.55593 8.13433 61.0309 -1.61585 8.28911 57.8378 -1.6762 8.44181 54.566 -1.73652 8.59255 51.2156 -1.75115 8.64562 47.7967 -1.72367 8.60178 44.3698 -1.70027 8.55715 40.9448 -1.6806 8.5118 37.5218 -1.66434 8.46582 34.1008 -1.65122 8.41926 30.6818 -1.64098 8.37219 27.2648 -1.63339 8.32466 23.8497 -1.62826 8.27672 20.4367 -1.62538 8.22841 17.0256 -1.62461 8.17977 13.6165 -1.62577 8.13083 10.2094 -1.62875 8.08163 6.80428 -1.63339 8.03221 3.40115 -1.6396 7.98257 0 -0.912675 6.47315 89.4472 -0.865946 6.65491 87.0657 -0.839493 6.83164 84.6137 -0.829583 7.00402 82.0913 -0.833203 7.17257 79.4985 -0.847894 7.33774 76.8353 -0.871632 7.49988 74.1017 -0.902735 7.6593 71.2976 -0.939797 7.81626 68.4232 -0.98163 7.97096 65.4784 -1.02723 8.12358 62.4631 -1.07573 8.2743 59.3774 -1.12641 8.42322 56.2214 -1.17862 8.57048 52.9949 -1.23181 8.71618 49.698 -1.24359 8.76359 46.3405 -1.21754 8.71328 42.9808 -1.19646 8.66231 39.6288 -1.17993 8.61076 36.2844 -1.1676 8.5587 32.9476 -1.15912 8.50617 29.6185 -1.15422 8.45324 26.297 -1.15263 8.39994 22.9832 -1.15411 8.34632 19.677 -1.15845 8.29242 16.3784 -1.16546 8.23826 13.0874 -1.17495 8.18389 9.80412 -1.18678 8.12932 6.52844 -1.20079 8.07458 3.2604 -1.21685 8.0197 0 -0.673395 6.71739 87.7867 -0.582564 6.88361 85.3475 -0.518465 7.04579 82.8469 -0.47619 7.20451 80.2847 -0.451825 7.36023 77.661 -0.442215 7.51334 74.9759 -0.444784 7.66414 72.2292 -0.457412 7.81288 69.4211 -0.478338 7.95978 66.5514 -0.506088 8.105 63.6203 -0.539417 8.2487 60.6277 -0.577269 8.391 57.5736 -0.618744 8.53202 54.4581 -0.663066 8.67185 51.281 -0.709566 8.81056 48.0424 -0.719166 8.85064 44.7518 -0.695415 8.79248 41.4655 -0.677641 8.73385 38.1931 -0.665366 8.67479 34.9344 -0.658168 8.61537 31.6896 -0.65567 8.55561 28.4585 -0.657537 8.49556 25.2413 -0.663469 8.43526 22.0378 -0.673196 8.37473 18.8482 -0.686475 8.31402 15.6723 -0.703087 8.25313 12.5103 -0.722833 8.1921 9.36199 -0.745532 8.13094 6.22753 -0.771021 8.06968 3.10686 -0.79915 8.00832 0 -0.446146 6.97366 85.9879 -0.303221 7.11913 83.4862 -0.195356 7.26211 80.9328 -0.116009 7.40301 78.3275 -0.0600457 7.54212 75.6704 -0.0233748 7.6797 72.9615 -0.0027004 7.81593 70.2007 0.00466376 7.95098 67.3881 0.000928328 8.08499 64.5237 -0.012071 8.21806 61.6075 -0.0327974 8.35028 58.6394 -0.0599548 8.48174 55.6195 -0.0924425 8.61249 52.5478 -0.12932 8.7426 49.4243 -0.169779 8.87211 46.2489 -0.1781 8.90299 43.0307 -0.157767 8.83544 39.824 -0.144555 8.76763 36.6378 -0.137913 8.69958 33.472 -0.137358 8.63133 30.3267 -0.142461 8.56291 27.2019 -0.152839 8.49434 24.0976 -0.168154 8.42563 21.0137 -0.1881 8.35681 17.9503 -0.212406 8.28788 14.9074 -0.240824 8.21888 11.885 -0.273135 8.1498 8.88302 -0.309136 8.08066 5.90154 -0.348647 8.01147 2.94053 -0.391501 7.94224 0 -0.236293 7.24733 84.0506 -0.0309944 7.36513 81.4817 0.128293 7.48294 78.8715 0.25044 7.60074 76.2198 0.342288 7.71855 73.5266 0.409198 7.83635 70.7921 0.45543 7.95415 68.0161 0.48441 8.07196 65.1988 0.498928 8.18976 62.34 0.501277 8.30757 59.4398 0.493359 8.42537 56.4981 0.476766 8.54318 53.5151 0.452838 8.66098 50.4906 0.422715 8.77879 47.4247 0.38737 8.89659 44.3174 0.379131 8.91615 41.1773 0.394629 8.83746 38.0562 0.401711 8.75877 34.9628 0.401008 8.68008 31.8971 0.39307 8.6014 28.859 0.378383 8.52271 25.8486 0.357377 8.44402 22.8659 0.330432 8.36533 19.9108 0.297888 8.28664 16.9834 0.260047 8.20795 14.0837 0.217181 8.12926 11.2116 0.169534 8.05058 8.3672 0.117325 7.97189 5.55047 0.0607541 7.8932 2.7614 0 7.81451 0 -9.31441 0.303689 80.968 -9.46581 0.0398346 78.4934 -9.61721 -0.164884 75.9788 -9.76862 -0.32187 73.4244 -9.92002 -0.439915 70.83 -10.0714 -0.525909 68.1958 -10.2228 -0.585327 65.5216 -10.3742 -0.622573 62.8076 -10.5256 -0.641232 60.0536 -10.677 -0.644251 57.2598 -10.8285 -0.634075 54.426 -10.9799 -0.612748 51.5524 -11.1313 -0.581996 48.6388 -11.2827 -0.543282 45.6854 -11.4341 -0.497856 42.692 -11.4592 -0.487267 39.6671 -11.3581 -0.507184 36.6605 -11.2569 -0.516287 33.6805 -11.1558 -0.515383 30.7272 -11.0547 -0.505181 27.8006 -10.9535 -0.486306 24.9006 -10.8524 -0.459308 22.0273 -10.7513 -0.424678 19.1806 -10.6502 -0.382852 16.3605 -10.549 -0.334218 13.5671 -10.4479 -0.279126 10.8004 -10.3468 -0.217888 8.06033 -10.2456 -0.150789 5.3469 -10.1445 -0.0780824 2.66013 -10.0434 6.31771e-16 0 -8.96268 0.573396 82.8342 -9.14964 0.389706 80.4243 -9.33341 0.251075 77.9645 -9.51449 0.149098 75.4548 -9.69328 0.077172 72.8952 -9.87009 0.0300418 70.2856 -10.0452 0.00347061 67.6261 -10.2188 -0.00599396 64.9166 -10.391 -0.00119311 62.1573 -10.562 0.0155139 59.348 -10.7319 0.0421519 56.4888 -10.9009 0.077055 53.5797 -11.0689 0.118809 50.6206 -11.2362 0.166205 47.6116 -11.4026 0.218204 44.5527 -11.4423 0.228898 41.4526 -11.3555 0.202765 38.3635 -11.2683 0.185784 35.2941 -11.1809 0.177249 32.2444 -11.0932 0.176536 29.2145 -11.0052 0.183094 26.2043 -10.9171 0.196432 23.2138 -10.8288 0.216114 20.243 -10.7403 0.24175 17.292 -10.6517 0.272988 14.3607 -10.5631 0.309512 11.4491 -10.4743 0.351038 8.55723 -10.3854 0.397308 5.6851 -10.2965 0.448088 2.83269 -10.2075 0.503164 0 -8.63332 0.86546 84.5671 -8.84695 0.748723 82.2174 -9.05538 0.666341 79.8084 -9.25937 0.612008 77.3402 -9.45951 0.580694 74.8128 -9.65629 0.568343 72.2261 -9.8501 0.571645 69.5802 -10.0413 0.587875 66.875 -10.2301 0.614769 64.1107 -10.4167 0.650434 61.287 -10.6014 0.693269 58.4042 -10.7843 0.741918 55.4621 -10.9655 0.795222 52.4608 -11.1452 0.852185 49.4002 -11.3235 0.911948 46.2805 -11.375 0.924285 43.1105 -11.3003 0.89376 39.9448 -11.2249 0.870917 36.7924 -11.149 0.855141 33.6532 -11.0726 0.84589 30.5274 -10.9958 0.84268 27.4148 -10.9187 0.84508 24.3156 -10.8412 0.852704 21.2296 -10.7634 0.865205 18.1569 -10.6853 0.882271 15.0975 -10.6071 0.903621 12.0514 -10.5286 0.928999 9.01864 -10.45 0.958172 5.99913 -10.3713 0.990931 2.99292 -10.2925 1.02708 0 -8.31942 1.17299 86.1667 -8.55302 1.11293 83.8725 -8.78016 1.07893 81.5105 -9.0017 1.0662 79.0806 -9.21832 1.07085 76.5829 -9.4306 1.08973 74.0173 -9.63899 1.12024 71.384 -9.84388 1.16021 68.6828 -10.0456 1.20785 65.9138 -10.2444 1.26161 63.0769 -10.4406 1.32021 60.1723 -10.6343 1.38255 57.1998 -10.8257 1.44768 54.1594 -11.015 1.51478 51.0513 -11.2022 1.58314 47.8753 -11.2631 1.59829 44.6409 -11.1985 1.56481 41.4045 -11.133 1.53771 38.1754 -11.0667 1.51647 34.9536 -10.9998 1.50062 31.7393 -10.9323 1.48973 28.5322 -10.8643 1.48343 25.3326 -10.7958 1.48138 22.1403 -10.7269 1.48329 18.9553 -10.6576 1.48886 15.7777 -10.588 1.49787 12.6074 -10.5181 1.51007 9.44455 -10.448 1.52527 6.28901 -10.3776 1.54328 3.14083 -10.3071 1.56392 0 -8.01599 1.49099 87.6331 -8.26436 1.47943 85.3897 -8.50549 1.4874 83.0707 -8.74026 1.51122 80.6759 -8.96937 1.54786 78.2055 -9.19343 1.59487 75.6593 -9.41293 1.65018 73.0375 -9.62827 1.71208 70.3399 -9.83981 1.77912 67.5666 -10.0478 1.85008 64.7177 -10.2526 1.92391 61.793 -10.4544 1.99971 58.7926 -10.6533 2.07673 55.7165 -10.8496 2.15428 52.5648 -11.0433 2.2318 49.3373 -11.1115 2.25061 46.0438 -11.0552 2.21529 42.7425 -10.9978 2.18522 39.4432 -10.9395 2.15994 36.1457 -10.8804 2.13905 32.8502 -10.8206 2.12218 29.5565 -10.7601 2.10902 26.2648 -10.699 2.09927 22.975 -10.6374 2.09267 19.6872 -10.5753 2.08897 16.4012 -10.5128 2.08798 13.1171 -10.4499 2.08948 9.83497 -10.3867 2.09329 6.55473 -10.3231 2.09927 3.27641 -10.2594 2.10725 0 -7.71935 1.81577 88.9661 -7.97836 1.84608 86.769 -8.22966 1.89069 84.489 -8.4741 1.94678 82.1262 -8.71238 2.01198 79.6806 -8.9451 2.08436 77.152 -9.17275 2.1623 74.5406 -9.39573 2.24442 71.8464 -9.61442 2.32959 69.0692 -9.8291 2.4168 66.2092 -10.0401 2.50524 63.2664 -10.2475 2.59417 60.2407 -10.4516 2.68297 57.1321 -10.6526 2.7711 53.9406 -10.8506 2.85811 50.6663 -10.9243 2.88119 47.3191 -10.8747 2.8449 43.9589 -10.824 2.81285 40.5957 -10.7722 2.78466 37.2294 -10.7195 2.75999 33.8601 -10.6659 2.73852 30.4877 -10.6115 2.71999 27.1123 -10.5565 2.70414 23.7339 -10.5008 2.69075 20.3525 -10.4445 2.67961 16.968 -10.3877 2.67055 13.5805 -10.3305 2.66339 10.1899 -10.2728 2.65798 6.7963 -10.2148 2.65417 3.39967 -10.1564 2.65185 0 -7.42672 2.14457 90.1658 -7.69299 2.21124 88.0103 -7.9513 2.28802 85.7656 -8.20245 2.3727 83.4315 -8.4471 2.46346 81.0081 -8.68582 2.55877 78.4955 -8.91909 2.65735 75.8935 -9.1473 2.75811 73.2022 -9.37081 2.86016 70.4216 -9.58991 2.9627 67.5517 -9.80488 3.06506 64.5924 -10.0159 3.16667 61.5439 -10.2232 3.26704 58.4061 -10.427 3.36573 55.1789 -10.6274 3.46238 51.8625 -10.7048 3.49016 48.4669 -10.6607 3.45354 45.0537 -10.6153 3.42029 41.6329 -10.5687 3.39007 38.2047 -10.5211 3.36261 34.769 -10.4725 3.33765 31.3258 -10.4231 3.31495 27.8751 -10.3729 3.29431 24.4169 -10.322 3.27554 20.9513 -10.2704 3.25846 17.4781 -10.2182 3.24292 13.9975 -10.1654 3.22878 10.5093 -10.1122 3.21591 7.01371 -10.0585 3.20419 3.5106 -10.0043 3.19351 0 -7.13598 2.47526 91.2322 -7.4067 2.57369 89.1137 -7.66936 2.67881 86.9003 -7.92468 2.7889 84.5918 -8.1733 2.90257 82.1882 -8.41573 3.0186 79.6896 -8.65243 3.13601 77.096 -8.88377 3.25394 74.4073 -9.11008 3.37167 71.6236 -9.33166 3.4886 68.7449 -9.54876 3.60419 65.7711 -9.76158 3.71799 62.7023 -9.97033 3.8296 59.5385 -10.1752 3.93871 56.2796 -10.3763 4.04501 52.9257 -10.456 4.07773 49.4872 -10.4162 4.04127 46.0268 -10.3749 4.0074 42.555 -10.3325 3.97585 39.0717 -10.289 3.9464 35.5769 -10.2444 3.91882 32.0708 -10.1989 3.89293 28.5531 -10.1525 3.86855 25.024 -10.1053 3.84553 21.4835 -10.0574 3.82373 17.9316 -10.0089 3.80301 14.3681 -9.95965 3.78327 10.7933 -9.90987 3.76439 7.20696 -9.85955 3.74628 3.6092 -9.80874 3.72885 0 -6.84552 2.80623 92.1653 -7.11827 2.93249 90.0792 -7.38297 3.06263 87.8931 -7.64028 3.19535 85.607 -7.89076 3.32956 83.2208 -8.13491 3.46433 80.7345 -8.37311 3.5989 78.1482 -8.60574 3.73261 75.4619 -8.83309 3.86489 72.6755 -9.05544 3.99528 69.789 -9.27302 4.12337 66.8025 -9.48603 4.24881 63.716 -9.69465 4.3713 60.5294 -9.89906 4.49058 57.2427 -10.0994 4.60643 53.856 -10.1803 4.64424 50.3799 -10.1437 4.60826 46.8783 -10.1057 4.57421 43.3617 -10.0665 4.54185 39.8303 -10.0261 4.51101 36.2839 -9.98462 4.48151 32.7226 -9.94217 4.4532 29.1464 -9.89879 4.42594 25.5553 -9.85456 4.39959 21.9492 -9.80954 4.37405 18.3283 -9.76379 4.34922 14.6925 -9.71735 4.325 11.0417 -9.67026 4.3013 7.37606 -9.62259 4.27805 3.69548 -9.57435 4.25517 0 -6.55408 3.13622 92.9651 -6.82673 3.28692 90.9068 -7.09144 3.4392 88.7441 -7.34879 3.59207 86.4772 -7.5993 3.74471 84.1058 -7.84337 3.89641 81.6301 -8.08139 4.0466 79.0501 -8.31367 4.19477 76.3657 -8.54049 4.34052 73.577 -8.7621 4.48347 70.684 -8.9787 4.62332 67.6865 -9.19049 4.75982 64.5848 -9.39764 4.89274 61.3787 -9.60029 5.02189 58.0683 -9.7986 5.14711 54.6535 -9.8796 5.19002 51.1451 -9.84541 5.15476 47.6081 -9.80985 5.12082 44.0532 -9.77302 5.08805 40.4805 -9.73502 5.0563 36.8898 -9.69593 5.02541 33.2813 -9.65582 4.99529 29.6549 -9.61475 4.96581 26.0106 -9.5728 4.93687 22.3484 -9.53001 4.9084 18.6684 -9.48645 4.8803 14.9705 -9.44215 4.85251 11.2547 -9.39716 4.82496 7.521 -9.35153 4.79759 3.76944 -9.30529 4.77034 0 -6.2607 3.46427 93.6316 -6.53132 3.63646 91.5964 -6.7942 