<?xml version="1.0"?> 
<VTKFile type="StructuredGrid" version="0.1"> 
<StructuredGrid WholeExtent="0 29 0 29 0 29"> 
<Piece Extent="0 29 0 29 0 29"> 
<PointData>
<DataArray type="Float32" Name="efield" format="ascii" NumberOfComponents="3"> 
-3.33849e-10 -20.2609 -1.05362 0.553324 -19.417 -0.868363 1.11703 -18.5834 -0.696342 1.69111 -17.7601 -0.537553 2.27558 -16.9473 -0.391997 2.87043 -16.1448 -0.259673 3.47565 -15.3528 -0.140582 4.09126 -14.5711 -0.0347228 4.71725 -13.7997 0.0579039 5.35362 -13.0388 0.137298 6.00037 -12.2882 0.20346 6.6575 -11.5481 0.25639 7.32501 -10.8183 0.296087 8.0029 -10.0989 0.322552 8.69118 -9.38983 0.335784 9.38983 -8.69118 0.335784 10.0989 -8.0029 0.322552 10.8183 -7.32501 0.296087 11.5481 -6.6575 0.25639 12.2882 -6.00037 0.20346 13.0388 -5.35362 0.137298 13.7997 -4.71725 0.0579039 14.5711 -4.09126 -0.0347228 15.3528 -3.47565 -0.140582 16.1448 -2.87043 -0.259673 16.9473 -2.27558 -0.391997 17.7601 -1.69111 -0.537553 18.5834 -1.11703 -0.696342 19.417 -0.553324 -0.868363 20.2609 7.56206e-10 -1.05362 -0.553324 -19.417 -0.868363 -3.42608e-10 -18.593 -0.765763 0.562989 -17.7788 -0.670492 1.13564 -16.9741 -0.582549 1.71796 -16.1792 -0.501935 2.30994 -15.3939 -0.428649 2.91159 -14.6183 -0.362692 3.5229 -13.8524 -0.304063 4.14388 -13.0961 -0.252763 4.77452 -12.3495 -0.208792 5.41483 -11.6125 -0.172149 6.0648 -10.8852 -0.142835 6.72444 -10.1676 -0.120849 7.39374 -9.45963 -0.106192 8.07271 -8.76134 -0.0988634 8.76134 -8.07271 -0.0988634 9.45963 -7.39374 -0.106192 10.1676 -6.72444 -0.120849 10.8852 -6.0648 -0.142835 11.6125 -5.41483 -0.172149 12.3495 -4.77452 -0.208792 13.0961 -4.14388 -0.252763 13.8524 -3.5229 -0.304063 14.6183 -2.91159 -0.362692 15.3939 -2.30994 -0.428649 16.1792 -1.71796 -0.501935 16.9741 -1.13564 -0.582549 17.7788 -0.562989 -0.670492 18.593 7.81453e-10 -0.765763 19.417 0.553324 -0.868363 -1.11703 -18.5834 -0.696342 -0.562989 -17.7788 -0.670492 -3.50843e-10 -16.9831 -0.646488 0.571938 -16.1964 -0.62433 1.15282 -15.4186 -0.604019 1.74266 -14.6498 -0.585555 2.34144 -13.8899 -0.568937 2.94918 -13.139 -0.554165 3.56586 -12.3971 -0.54124 4.19149 -11.6641 -0.530161 4.82607 -10.94 -0.520929 5.4696 -10.2249 -0.513543 6.12208 -9.51869 -0.508004 6.7835 -8.82147 -0.504311 7.45388 -8.1332 -0.502465 8.1332 -7.45388 -0.502465 8.82147 -6.7835 -0.504311 9.51869 -6.12208 -0.508004 10.2249 -5.4696 -0.513543 10.94 -4.82607 -0.520929 11.6641 -4.19149 -0.530161 12.3971 -3.56586 -0.54124 13.139 -2.94918 -0.554165 13.8899 -2.34144 -0.568937 14.6498 -1.74266 -0.585555 15.4186 -1.15282 -0.604019 16.1964 -0.571938 -0.62433 16.9831 8.0504e-10 -0.646488 17.7788 0.562989 -0.670492 18.5834 1.11703 -0.696342 -1.69111 -17.7601 -0.537553 -1.13564 -16.9741 -0.582549 -0.571938 -16.1964 -0.62433 -3.5856e-10 -15.4269 -0.662898 0.580171 -14.6656 -0.698252 1.16857 -13.9125 -0.730391 1.76521 -13.1677 -0.759317 2.37008 -12.4311 -0.785029 2.98318 -11.7027 -0.807526 3.60452 -10.9826 -0.82681 4.23409 -10.2707 -0.84288 4.87189 -9.56702 -0.855736 5.51792 -8.87159 -0.865378 6.17219 -8.18439 -0.871806 6.83469 -7.50542 -0.87502 7.50542 -6.83469 -0.87502 8.18439 -6.17219 -0.871806 8.87159 -5.51792 -0.865378 9.56702 -4.87189 -0.855736 10.2707 -4.23409 -0.84288 10.9826 -3.60452 -0.82681 11.7027 -2.98318 -0.807526 12.4311 -2.37008 -0.785029 13.1677 -1.76521 -0.759317 13.9125 -1.16857 -0.730391 14.6656 -0.580171 -0.698252 15.4269 8.26971e-10 -0.662898 16.1964 0.571938 -0.62433 16.9741 1.13564 -0.582549 17.7601 1.69111 -0.537553 -2.27558 -16.9473 -0.391997 -1.71796 -16.1792 -0.501935 -1.15282 -15.4186 -0.604019 -0.580171 -14.6656 -0.698252 -3.65757e-10 -13.92 -0.784631 0.587688 -13.182 -0.863158 1.18289 -12.4515 -0.933832 1.78561 -11.7285 -0.996653 2.39585 -11.013 -1.05162 3.01361 -10.305 -1.09874 3.63888 -9.6046 -1.138 4.27167 -8.91168 -1.16941 4.91198 -8.22627 -1.19297 5.5598 -7.54838 -1.20868 6.21514 -6.878 -1.21653 6.878 -6.21514 -1.21653 7.54838 -5.5598 -1.20868 8.22627 -4.91198 -1.19297 8.91168 -4.27167 -1.16941 9.6046 -3.63888 -1.138 10.305 -3.01361 -1.09874 11.013 -2.39585 -1.05162 11.7285 -1.78561 -0.996653 12.4515 -1.18289 -0.933832 13.182 -0.587688 -0.863158 13.92 8.47239e-10 -0.784631 14.6656 0.580171 -0.698252 15.4186 1.15282 -0.604019 16.1792 1.71796 -0.501935 16.9473 2.27558 -0.391997 -2.87043 -16.1448 -0.259673 -2.30994 -15.3939 -0.428649 -1.74266 -14.6498 -0.585555 -1.16857 -13.9125 -0.730391 -0.587688 -13.182 -0.863158 -3.72439e-10 -12.4583 -0.983855 0.594489 -11.7414 -1.09248 1.19578 -11.0313 -1.18904 1.80387 -10.328 -1.27353 2.41876 -9.63145 -1.34595 3.04046 -8.94174 -1.40629 3.66895 -8.25884 -1.45457 4.30425 -7.58274 -1.49078 4.94634 -6.91344 -1.51492 5.59524 -6.25094 -1.52699 6.25094 -5.59524 -1.52699 6.91344 -4.94634 -1.51492 7.58274 -4.30425 -1.49078 8.25884 -3.66895 -1.45457 8.94174 -3.04046 -1.40629 9.63145 -2.41876 -1.34595 10.328 -1.80387 -1.27353 11.0313 -1.19578 -1.18904 11.7414 -0.594489 -1.09248 12.4583 8.65852e-10 -0.983855 13.182 0.587688 -0.863158 13.9125 1.16857 -0.730391 14.6498 1.74266 -0.585555 15.3939 2.30994 -0.428649 16.1448 2.87043 -0.259673 -3.47565 -15.3528 -0.140582 -2.91159 -14.6183 -0.362692 -2.34144 -13.8899 -0.568937 -1.76521 -13.1677 -0.759317 -1.18289 -12.4515 -0.933832 -0.594489 -11.7414 -1.09248 -3.78607e-10 -11.0373 -1.23527 0.600574 -10.3394 -1.36219 1.20723 -9.64756 -1.47324 1.81998 -8.96179 -1.56843 2.43881 -8.28211 -1.64776 3.06372 -7.60851 -1.71122 3.69472 -6.941 -1.75881 4.33181 -6.27957 -1.79054 4.97498 -5.62423 -1.80641 5.62423 -4.97498 -1.80641 6.27957 -4.33181 -1.79054 6.941 -3.69472 -1.75881 7.60851 -3.06372 -1.71122 8.28211 -2.43881 -1.64776 8.96179 -1.81998 -1.56843 9.64756 -1.20723 -1.47324 10.3394 -0.600574 -1.36219 11.0373 8.82809e-10 -1.23527 11.7414 0.594489 -1.09248 12.4515 1.18289 -0.933832 13.1677 1.76521 -0.759317 13.8899 2.34144 -0.568937 14.6183 2.91159 -0.362692 15.3528 3.47565 -0.140582 -4.09126 -14.5711 -0.0347228 -3.5229 -13.8524 -0.304063 -2.94918 -13.139 -0.554165 -2.37008 -12.4311 -0.785029 -1.78561 -11.7285 -0.996653 -1.19578 -11.0313 -1.18904 -0.600574 -10.3394 -1.36219 -3.84266e-10 -9.65293 -1.5161 0.605943 -8.97181 -1.65077 1.21726 -8.29607 -1.7662 1.83394 -7.62569 -1.86239 2.45599 -6.96069 -1.93935 3.08341 -6.30105 -1.99706 3.7162 -5.64678 -2.03554 4.35436 -4.99789 -2.05478 4.99789 -4.35436 -2.05478 5.64678 -3.7162 -2.03554 6.30105 -3.08341 -1.99706 6.96069 -2.45599 -1.93935 7.62569 -1.83394 -1.86239 8.29607 -1.21726 -1.7662 8.97181 -0.605943 -1.65077 9.65293 8.98116e-10 -1.5161 10.3394 0.600574 -1.36219 11.0313 1.19578 -1.18904 11.7285 1.78561 -0.996653 12.4311 2.37008 -0.785029 13.139 2.94918 -0.554165 13.8524 3.5229 -0.304063 14.5711 4.09126 -0.0347228 -4.71725 -13.7997 0.0579039 -4.14388 -13.0961 -0.252763 -3.56586 -12.3971 -0.54124 -2.98318 -11.7027 -0.807526 -2.39585 -11.013 -1.05162 -1.80387 -10.328 -1.27353 -1.20723 -9.64756 -1.47324 -0.605943 -8.97181 -1.65077 -3.89417e-10 -8.30072 -1.8061 0.610597 -7.63428 -1.93924 1.22585 -6.9725 -2.0502 1.84575 -6.31537 -2.13896 2.47031 -5.66289 -2.20553 3.09952 -5.01507 -2.24991 3.73338 -4.3719 -2.2721 4.3719 -3.73338 -2.2721 5.01507 -3.09952 -2.24991 5.66289 -2.47031 -2.20553 6.31537 -1.84575 -2.13896 6.9725 -1.22585 -2.0502 7.63428 -0.610597 -1.93924 8.30072 9.1177e-10 -1.8061 8.97181 0.605943 -1.65077 9.64756 1.20723 -1.47324 10.328 1.80387 -1.27353 11.013 2.39585 -1.05162 11.7027 2.98318 -0.807526 12.3971 3.56586 -0.54124 13.0961 4.14388 -0.252763 13.7997 4.71725 0.0579039 -5.35362 -13.0388 0.137298 -4.77452 -12.3495 -0.208792 -4.19149 -11.6641 -0.530161 -3.60452 -10.9826 -0.82681 -3.01361 -10.305 -1.09874 -2.41876 -9.63145 -1.34595 -1.81998 -8.96179 -1.56843 -1.21726 -8.29607 -1.7662 -0.610597 -7.63428 -1.93924 -3.94061e-10 -6.97644 -2.08757 0.614534 -6.32253 -2.21117 1.23301 -5.67256 -2.31005 1.85542 -5.02652 -2.38422 2.48176 -4.38443 -2.43366 3.11205 -3.74627 -2.45838 3.74627 -3.11205 -2.45838 4.38443 -2.48176 -2.43366 5.02652 -1.85542 -2.38422 5.67256 -1.23301 -2.31005 6.32253 -0.614534 -2.21117 6.97644 9.23773e-10 -2.08757 7.63428 0.610597 -1.93924 8.29607 1.21726 -1.7662 8.96179 1.81998 -1.56843 9.63145 2.41876 -1.34595 10.305 3.01361 -1.09874 10.9826 3.60452 -0.82681 11.6641 4.19149 -0.530161 12.3495 4.77452 -0.208792 13.0388 5.35362 0.137298 -6.00037 -12.2882 0.20346 -5.41483 -11.6125 -0.172149 -4.82607 -10.94 -0.520929 -4.23409 -10.2707 -0.84288 -3.63888 -9.6046 -1.138 -3.04046 -8.94174 -1.40629 -2.43881 -8.28211 -1.64776 -1.83394 -7.62569 -1.86239 -1.22585 -6.9725 -2.0502 -0.614534 -6.32253 -2.21117 -3.98202e-10 -5.67578 -2.34532 0.617756 -5.03225 -2.45263 1.23873 -4.39194 -2.53312 1.86293 -3.75486 -2.58678 2.49035 -3.12099 -2.61361 3.12099 -2.49035 -2.61361 3.75486 -1.86293 -2.58678 4.39194 -1.23873 -2.53312 5.03225 -0.617756 -2.45263 5.67578 9.34127e-10 -2.34532 6.32253 0.614534 -2.21117 6.9725 1.22585 -2.0502 7.62569 1.83394 -1.86239 8.28211 2.43881 -1.64776 8.94174 3.04046 -1.40629 9.6046 3.63888 -1.138 10.2707 4.23409 -0.84288 10.94 4.82607 -0.520929 11.6125 5.41483 -0.172149 12.2882 6.00037 0.20346 -6.6575 -11.5481 0.25639 -6.0648 -10.8852 -0.142835 -5.4696 -10.2249 -0.513543 -4.87189 -9.56702 -0.855736 -4.27167 -8.91168 -1.16941 -3.66895 -8.25884 -1.45457 -3.06372 -7.60851 -1.71122 -2.45599 -6.96069 -1.93935 -1.84575 -6.31537 -2.13896 -1.23301 -5.67256 -2.31005 -0.617756 -5.03225 -2.45263 -4.01842e-10 -4.39445 -2.5667 0.620261 -3.75915 -2.65225 1.24303 -3.12636 -2.70928 1.8683 -2.49608 -2.73779 2.49608 -1.8683 -2.73779 3.12636 -1.24303 -2.70928 3.75915 -0.620261 -2.65225 4.39445 9.42835e-10 -2.5667 5.03225 0.617756 -2.45263 5.67256 1.23301 -2.31005 6.31537 1.84575 -2.13896 6.96069 2.45599 -1.93935 7.60851 3.06372 -1.71122 8.25884 3.66895 -1.45457 8.91168 4.27167 -1.16941 9.56702 4.87189 -0.855736 10.2249 5.4696 -0.513543 10.8852 6.0648 -0.142835 11.5481 6.6575 0.25639 -7.32501 -10.8183 0.296087 -6.72444 -10.1676 -0.120849 -6.12208 -9.51869 -0.508004 -5.51792 -8.87159 -0.865378 -4.91198 -8.22627 -1.19297 -4.30425 -7.58274 -1.49078 -3.69472 -6.941 -1.75881 -3.08341 -6.30105 -1.99706 -2.47031 -5.66289 -2.20553 -1.85542 -5.02652 -2.38422 -1.23873 -4.39194 -2.53312 -0.620261 -3.75915 -2.65225 -4.04985e-10 -3.12815 -2.74159 0.622051 -2.49894 -2.80115 1.24589 -1.87152 -2.83093 1.87152 -1.24589 -2.83093 2.49894 -0.622051 -2.80115 3.12815 9.49896e-10 -2.74159 3.75915 0.620261 -2.65225 4.39194 1.23873 -2.53312 5.02652 1.85542 -2.38422 5.66289 2.47031 -2.20553 6.30105 3.08341 -1.99706 6.941 3.69472 -1.75881 7.58274 4.30425 -1.49078 8.22627 4.91198 -1.19297 8.87159 5.51792 -0.865378 9.51869 6.12208 -0.508004 10.1676 6.72444 -0.120849 10.8183 7.32501 0.296087 -8.0029 -10.0989 0.322552 -7.39374 -9.45963 -0.106192 -6.7835 -8.82147 -0.504311 -6.17219 -8.18439 -0.871806 -5.5598 -7.54838 -1.20868 -4.94634 -6.91344 -1.51492 -4.33181 -6.27957 -1.79054 -3.7162 -5.64678 -2.03554 -3.09952 -5.01507 -2.24991 -2.48176 -4.38443 -2.43366 -1.86293 -3.75486 -2.58678 -1.24303 -3.12636 -2.70928 -0.622051 -2.49894 -2.80115 -4.07631e-10 -1.8726 -2.8624 0.623125 -1.24732 -2.89303 1.24732 -0.623125 -2.89303 1.8726 9.55316e-10 -2.8624 2.49894 0.622051 -2.80115 3.12636 1.24303 -2.70928 3.75486 1.86293 -2.58678 4.38443 2.48176 -2.43366 5.01507 3.09952 -2.24991 5.64678 3.7162 -2.03554 6.27957 4.33181 -1.79054 6.91344 4.94634 -1.51492 7.54838 5.5598 -1.20868 8.18439 6.17219 -0.871806 8.82147 6.7835 -0.504311 9.45963 7.39374 -0.106192 10.0989 8.0029 0.322552 -8.69118 -9.38983 0.335784 -8.07271 -8.76134 -0.0988634 -7.45388 -8.1332 -0.502465 -6.83469 -7.50542 -0.87502 -6.21514 -6.878 -1.21653 -5.59524 -6.25094 -1.52699 -4.97498 -5.62423 -1.80641 -4.35436 -4.99789 -2.05478 -3.73338 -4.3719 -2.2721 -3.11205 -3.74627 -2.45838 -2.49035 -3.12099 -2.61361 -1.8683 -2.49608 -2.73779 -1.24589 -1.87152 -2.83093 -0.623125 -1.24732 -2.89303 -4.09783e-10 -0.623483 -2.92407 0.623483 9.59094e-10 -2.92407 1.24732 0.623125 -2.89303 1.87152 1.24589 -2.83093 2.49608 1.8683 -2.73779 3.12099 2.49035 -2.61361 3.74627 3.11205 -2.45838 4.3719 3.73338 -2.2721 4.99789 4.35436 -2.05478 5.62423 4.97498 -1.80641 6.25094 5.59524 -1.52699 6.878 6.21514 -1.21653 7.50542 6.83469 -0.87502 8.1332 7.45388 -0.502465 8.76134 8.07271 -0.0988634 9.38983 8.69118 0.335784 -9.38983 -8.69118 0.335784 -8.76134 -8.07271 -0.0988634 -8.1332 -7.45388 -0.502465 -7.50542 -6.83469 -0.87502 -6.878 -6.21514 -1.21653 -6.25094 -5.59524 -1.52699 -5.62423 -4.97498 -1.80641 -4.99789 -4.35436 -2.05478 -4.3719 -3.73338 -2.2721 -3.74627 -3.11205 -2.45838 -3.12099 -2.49035 -2.61361 -2.49608 -1.8683 -2.73779 -1.87152 -1.24589 -2.83093 -1.24732 -0.623125 -2.89303 -0.623483 9.58763e-10 -2.92407 -4.09362e-10 0.623483 -2.92407 0.623125 1.24732 -2.89303 1.24589 1.87152 -2.83093 1.8683 2.49608 -2.73779 2.49035 3.12099 -2.61361 3.11205 3.74627 -2.45838 3.73338 4.3719 -2.2721 4.35436 4.99789 -2.05478 4.97498 5.62423 -1.80641 5.59524 6.25094 -1.52699 6.21514 6.878 -1.21653 6.83469 7.50542 -0.87502 7.45388 8.1332 -0.502465 8.07271 8.76134 -0.0988634 8.69118 9.38983 0.335784 -10.0989 -8.0029 0.322552 -9.45963 -7.39374 -0.106192 -8.82147 -6.7835 -0.504311 -8.18439 -6.17219 -0.871806 -7.54838 -5.5598 -1.20868 -6.91344 -4.94634 -1.51492 -6.27957 -4.33181 -1.79054 -5.64678 -3.7162 -2.03554 -5.01507 -3.09952 -2.24991 -4.38443 -2.48176 -2.43366 -3.75486 -1.86293 -2.58678 -3.12636 -1.24303 -2.70928 -2.49894 -0.622051 -2.80115 -1.8726 9.54437e-10 -2.8624 -1.24732 0.623125 -2.89303 -0.623125 1.24732 -2.89303 -4.06251e-10 1.8726 -2.8624 0.622051 2.49894 -2.80115 1.24303 3.12636 -2.70928 1.86293 3.75486 -2.58678 2.48176 4.38443 -2.43366 3.09952 5.01507 -2.24991 3.7162 5.64678 -2.03554 4.33181 6.27957 -1.79054 4.94634 6.91344 -1.51492 5.5598 7.54838 -1.20868 6.17219 8.18439 -0.871806 6.7835 8.82147 -0.504311 7.39374 9.45963 -0.106192 8.0029 10.0989 0.322552 -10.8183 -7.32501 0.296087 -10.1676 -6.72444 -0.120849 -9.51869 -6.12208 -0.508004 -8.87159 -5.51792 -0.865378 -8.22627 -4.91198 -1.19297 -7.58274 -4.30425 -1.49078 -6.941 -3.69472 -1.75881 -6.30105 -3.08341 -1.99706 -5.66289 -2.47031 -2.20553 -5.02652 -1.85542 -2.38422 -4.39194 -1.23873 -2.53312 -3.75915 -0.620261 -2.65225 -3.12815 9.48619e-10 -2.74159 -2.49894 0.622051 -2.80115 -1.87152 1.24589 -2.83093 -1.24589 1.87152 -2.83093 -0.622051 2.49894 -2.80115 -4.02495e-10 3.12815 -2.74159 0.620261 3.75915 -2.65225 1.23873 4.39194 -2.53312 1.85542 5.02652 -2.38422 2.47031 5.66289 -2.20553 3.08341 6.30105 -1.99706 3.69472 6.941 -1.75881 4.30425 7.58274 -1.49078 4.91198 8.22627 -1.19297 5.51792 8.87159 -0.865378 6.12208 9.51869 -0.508004 6.72444 10.1676 -0.120849 7.32501 10.8183 0.296087 -11.5481 -6.6575 0.25639 -10.8852 -6.0648 -0.142835 -10.2249 -5.4696 -0.513543 -9.56702 -4.87189 -0.855736 -8.91168 -4.27167 -1.16941 -8.25884 -3.66895 -1.45457 -7.60851 -3.06372 -1.71122 -6.96069 -2.45599 -1.93935 -6.31537 -1.84575 -2.13896 -5.67256 -1.23301 -2.31005 -5.03225 -0.617756 -2.45263 -4.39445 9.41309e-10 -2.5667 -3.75915 0.620261 -2.65225 -3.12636 1.24303 -2.70928 -2.49608 1.8683 -2.73779 -1.8683 2.49608 -2.73779 -1.24303 3.12636 -2.70928 -0.620261 3.75915 -2.65225 -3.98093e-10 4.39445 -2.5667 0.617756 5.03225 -2.45263 1.23301 5.67256 -2.31005 1.84575 6.31537 -2.13896 2.45599 6.96069 -1.93935 3.06372 7.60851 -1.71122 3.66895 8.25884 -1.45457 4.27167 8.91168 -1.16941 4.87189 9.56702 -0.855736 5.4696 10.2249 -0.513543 6.0648 10.8852 -0.142835 6.6575 11.5481 0.25639 -12.2882 -6.00037 0.20346 -11.6125 -5.41483 -0.172149 -10.94 -4.82607 -0.520929 -10.2707 -4.23409 -0.84288 -9.6046 -3.63888 -1.138 -8.94174 -3.04046 -1.40629 -8.28211 -2.43881 -1.64776 -7.62569 -1.83394 -1.86239 -6.9725 -1.22585 -2.0502 -6.32253 -0.614534 -2.21117 -5.67578 9.32501e-10 -2.34532 -5.03225 0.617756 -2.45263 -4.39194 1.23873 -2.53312 -3.75486 1.86293 -2.58678 -3.12099 2.49035 -2.61361 -2.49035 3.12099 -2.61361 -1.86293 3.75486 -2.58678 -1.23873 4.39194 -2.53312 -0.617756 5.03225 -2.45263 -3.93042e-10 5.67578 -2.34532 0.614534 6.32253 -2.21117 1.22585 6.9725 -2.0502 1.83394 7.62569 -1.86239 2.43881 8.28211 -1.64776 3.04046 8.94174 -1.40629 3.63888 9.6046 -1.138 4.23409 10.2707 -0.84288 4.82607 10.94 -0.520929 5.41483 11.6125 -0.172149 6.00037 12.2882 0.20346 -13.0388 -5.35362 0.137298 -12.3495 -4.77452 -0.208792 -11.6641 -4.19149 -0.530161 -10.9826 -3.60452 -0.82681 -10.305 -3.01361 -1.09874 -9.63145 -2.41876 -1.34595 -8.96179 -1.81998 -1.56843 -8.29607 -1.21726 -1.7662 -7.63428 -0.610597 -1.93924 -6.97644 9.22192e-10 -2.08757 -6.32253 0.614534 -2.21117 -5.67256 1.23301 -2.31005 -5.02652 1.85542 -2.38422 -4.38443 2.48176 -2.43366 -3.74627 3.11205 -2.45838 -3.11205 3.74627 -2.45838 -2.48176 4.38443 -2.43366 -1.85542 5.02652 -2.38422 -1.23301 5.67256 -2.31005 -0.614534 6.32253 -2.21117 -3.87342e-10 6.97644 -2.08757 0.610597 7.63428 -1.93924 1.21726 8.29607 -1.7662 1.81998 8.96179 -1.56843 2.41876 9.63145 -1.34595 3.01361 10.305 -1.09874 3.60452 10.9826 -0.82681 4.19149 11.6641 -0.530161 4.77452 12.3495 -0.208792 5.35362 13.0388 0.137298 -13.7997 -4.71725 0.0579039 -13.0961 -4.14388 -0.252763 -12.3971 -3.56586 -0.54124 -11.7027 -2.98318 -0.807526 -11.013 -2.39585 -1.05162 -10.328 -1.80387 -1.27353 -9.64756 -1.20723 -1.47324 -8.97181 -0.605943 -1.65077 -8.30072 9.10378e-10 -1.8061 -7.63428 0.610597 -1.93924 -6.9725 1.22585 -2.0502 -6.31537 1.84575 -2.13896 -5.66289 2.47031 -2.20553 -5.01507 3.09952 -2.24991 -4.3719 3.73338 -2.2721 -3.73338 4.3719 -2.2721 -3.09952 5.01507 -2.24991 -2.47031 5.66289 -2.20553 -1.84575 6.31537 -2.13896 -1.22585 6.9725 -2.0502 -0.610597 7.63428 -1.93924 -3.8099e-10 8.30072 -1.8061 0.605943 8.97181 -1.65077 1.20723 9.64756 -1.47324 1.80387 10.328 -1.27353 2.39585 11.013 -1.05162 2.98318 11.7027 -0.807526 3.56586 12.3971 -0.54124 4.14388 13.0961 -0.252763 4.71725 13.7997 0.0579039 -14.5711 -4.09126 -0.0347228 -13.8524 -3.5229 -0.304063 -13.139 -2.94918 -0.554165 -12.4311 -2.37008 -0.785029 -11.7285 -1.78561 -0.996653 -11.0313 -1.19578 -1.18904 -10.3394 -0.600574 -1.36219 -9.65293 8.97059e-10 -1.5161 -8.97181 0.605943 -1.65077 -8.29607 1.21726 -1.7662 -7.62569 1.83394 -1.86239 -6.96069 2.45599 -1.93935 -6.30105 3.08341 -1.99706 -5.64678 3.7162 -2.03554 -4.99789 4.35436 -2.05478 -4.35436 4.99789 -2.05478 -3.7162 5.64678 -2.03554 -3.08341 6.30105 -1.99706 -2.45599 6.96069 -1.93935 -1.83394 7.62569 -1.86239 -1.21726 8.29607 -1.7662 -0.605943 8.97181 -1.65077 -3.73986e-10 9.65293 -1.5161 0.600574 10.3394 -1.36219 1.19578 11.0313 -1.18904 1.78561 11.7285 -0.996653 2.37008 12.4311 -0.785029 2.94918 13.139 -0.554165 3.5229 13.8524 -0.304063 4.09126 14.5711 -0.0347228 -15.3528 -3.47565 -0.140582 -14.6183 -2.91159 -0.362692 -13.8899 -2.34144 -0.568937 -13.1677 -1.76521 -0.759317 -12.4515 -1.18289 -0.933832 -11.7414 -0.594489 -1.09248 -11.0373 8.82224e-10 -1.23527 -10.3394 0.600574 -1.36219 -9.64756 1.20723 -1.47324 -8.96179 1.81998 -1.56843 -8.28211 2.43881 -1.64776 -7.60851 3.06372 -1.71122 -6.941 3.69472 -1.75881 -6.27957 4.33181 -1.79054 -5.62423 4.97498 -1.80641 -4.97498 5.62423 -1.80641 -4.33181 6.27957 -1.79054 -3.69472 6.941 -1.75881 -3.06372 7.60851 -1.71122 -2.43881 8.28211 -1.64776 -1.81998 8.96179 -1.56843 -1.20723 9.64756 -1.47324 -0.600574 10.3394 -1.36219 -3.66328e-10 11.0373 -1.23527 0.594489 11.7414 -1.09248 1.18289 12.4515 -0.933832 1.76521 13.1677 -0.759317 2.34144 13.8899 -0.568937 2.91159 14.6183 -0.362692 3.47565 15.3528 -0.140582 -16.1448 -2.87043 -0.259673 -15.3939 -2.30994 -0.428649 -14.6498 -1.74266 -0.585555 -13.9125 -1.16857 -0.730391 -13.182 -0.587688 -0.863158 -12.4583 8.65879e-10 -0.983855 -11.7414 0.594489 -1.09248 -11.0313 1.19578 -1.18904 -10.328 1.80387 -1.27353 -9.63145 2.41876 -1.34595 -8.94174 3.04046 -1.40629 -8.25884 3.66895 -1.45457 -7.58274 4.30425 -1.49078 -6.91344 4.94634 -1.51492 -6.25094 5.59524 -1.52699 -5.59524 6.25094 -1.52699 -4.94634 6.91344 -1.51492 -4.30425 7.58274 -1.49078 -3.66895 8.25884 -1.45457 -3.04046 8.94174 -1.40629 -2.41876 9.63145 -1.34595 -1.80387 10.328 -1.27353 -1.19578 11.0313 -1.18904 -0.594489 11.7414 -1.09248 -3.58014e-10 12.4583 -0.983855 0.587688 13.182 -0.863158 1.16857 13.9125 -0.730391 1.74266 14.6498 -0.585555 2.30994 15.3939 -0.428649 2.87043 16.1448 -0.259673 -16.9473 -2.27558 -0.391997 -16.1792 -1.71796 -0.501935 -15.4186 -1.15282 -0.604019 -14.6656 -0.580171 -0.698252 -13.92 8.48017e-10 -0.784631 -13.182 0.587688 -0.863158 -12.4515 1.18289 -0.933832 -11.7285 1.78561 -0.996653 -11.013 2.39585 -1.05162 -10.305 3.01361 -1.09874 -9.6046 3.63888 -1.138 -8.91168 4.27167 -1.16941 -8.22627 4.91198 -1.19297 -7.54838 5.5598 -1.20868 -6.878 6.21514 -1.21653 -6.21514 6.878 -1.21653 -5.5598 7.54838 -1.20868 -4.91198 8.22627 -1.19297 -4.27167 8.91168 -1.16941 -3.63888 9.6046 -1.138 -3.01361 10.305 -1.09874 -2.39585 11.013 -1.05162 -1.78561 11.7285 -0.996653 -1.18289 12.4515 -0.933832 -0.587688 13.182 -0.863158 -3.49043e-10 13.92 -0.784631 0.580171 14.6656 -0.698252 1.15282 15.4186 -0.604019 1.71796 16.1792 -0.501935 2.27558 16.9473 -0.391997 -17.7601 -1.69111 -0.537553 -16.9741 -1.13564 -0.582549 -16.1964 -0.571938 -0.62433 -15.4269 8.28634e-10 -0.662898 -14.6656 0.580171 -0.698252 -13.9125 1.16857 -0.730391 -13.1677 1.76521 -0.759317 -12.4311 2.37008 -0.785029 -11.7027 2.98318 -0.807526 -10.9826 3.60452 -0.82681 -10.2707 4.23409 -0.84288 -9.56702 4.87189 -0.855736 -8.87159 5.51792 -0.865378 -8.18439 6.17219 -0.871806 -7.50542 6.83469 -0.87502 -6.83469 7.50542 -0.87502 -6.17219 8.18439 -0.871806 -5.51792 8.87159 -0.865378 -4.87189 9.56702 -0.855736 -4.23409 10.2707 -0.84288 -3.60452 10.9826 -0.82681 -2.98318 11.7027 -0.807526 -2.37008 12.4311 -0.785029 -1.76521 13.1677 -0.759317 -1.16857 13.9125 -0.730391 -0.580171 14.6656 -0.698252 -3.39413e-10 15.4269 -0.662898 0.571938 16.1964 -0.62433 1.13564 16.9741 -0.582549 1.69111 17.7601 -0.537553 -18.5834 -1.11703 -0.696342 -17.7788 -0.562989 -0.670492 -16.9831 8.07724e-10 -0.646488 -16.1964 0.571938 -0.62433 -15.4186 1.15282 -0.604019 -14.6498 1.74266 -0.585555 -13.8899 2.34144 -0.568937 -13.139 2.94918 -0.554165 -12.3971 3.56586 -0.54124 -11.6641 4.19149 -0.530161 -10.94 4.82607 -0.520929 -10.2249 5.4696 -0.513543 -9.51869 6.12208 -0.508004 -8.82147 6.7835 -0.504311 -8.1332 7.45388 -0.502465 -7.45388 8.1332 -0.502465 -6.7835 8.82147 -0.504311 -6.12208 9.51869 -0.508004 -5.4696 10.2249 -0.513543 -4.82607 10.94 -0.520929 -4.19149 11.6641 -0.530161 -3.56586 12.3971 -0.54124 -2.94918 13.139 -0.554165 -2.34144 13.8899 -0.568937 -1.74266 14.6498 -0.585555 -1.15282 15.4186 -0.604019 -0.571938 16.1964 -0.62433 -3.29123e-10 16.9831 -0.646488 0.562989 17.7788 -0.670492 1.11703 18.5834 -0.696342 -19.417 -0.553324 -0.868363 -18.593 7.85289e-10 -0.765763 -17.7788 0.562989 -0.670492 -16.9741 1.13564 -0.582549 -16.1792 1.71796 -0.501935 -15.3939 2.30994 -0.428649 -14.6183 2.91159 -0.362692 -13.8524 3.5229 -0.304063 -13.0961 4.14388 -0.252763 -12.3495 4.77452 -0.208792 -11.6125 5.41483 -0.172149 -10.8852 6.0648 -0.142835 -10.1676 6.72444 -0.120849 -9.45963 7.39374 -0.106192 -8.76134 8.07271 -0.0988634 -8.07271 8.76134 -0.0988634 -7.39374 9.45963 -0.106192 -6.72444 10.1676 -0.120849 -6.0648 10.8852 -0.142835 -5.41483 11.6125 -0.172149 -4.77452 12.3495 -0.208792 -4.14388 13.0961 -0.252763 -3.5229 13.8524 -0.304063 -2.91159 14.6183 -0.362692 -2.30994 15.3939 -0.428649 -1.71796 16.1792 -0.501935 -1.13564 16.9741 -0.582549 -0.562989 17.7788 -0.670492 -3.18172e-10 18.593 -0.765763 0.553324 19.417 -0.868363 -20.2609 7.61323e-10 -1.05362 -19.417 0.553324 -0.868363 -18.5834 1.11703 -0.696342 -17.7601 1.69111 -0.537553 -16.9473 2.27558 -0.391997 -16.1448 2.87043 -0.259673 -15.3528 3.47565 -0.140582 -14.5711 4.09126 -0.0347228 -13.7997 4.71725 0.0579039 -13.0388 5.35362 0.137298 -12.2882 6.00037 0.20346 -11.5481 6.6575 0.25639 -10.8183 7.32501 0.296087 -10.0989 8.0029 0.322552 -9.38983 8.69118 0.335784 -8.69118 9.38983 0.335784 -8.0029 10.0989 0.322552 -7.32501 10.8183 0.296087 -6.6575 11.5481 0.25639 -6.00037 12.2882 0.20346 -5.35362 13.0388 0.137298 -4.71725 13.7997 0.0579039 -4.09126 14.5711 -0.0347228 -3.47565 15.3528 -0.140582 -2.87043 16.1448 -0.259673 -2.27558 16.9473 -0.391997 -1.69111 17.7601 -0.537553 -1.11703 18.5834 -0.696342 -0.553324 19.417 -0.868363 -3.06562e-10 20.2609 -1.05362 -4.01403e-10 -17.864 -20.4004 0.703495 -17.3355 -20.3868 1.40074 -16.8008 -20.3742 2.09174 -16.2598 -20.3625 2.77648 -15.7125 -20.3518 3.45498 -15.159 -20.3421 4.12723 -14.5993 -20.3333 4.79323 -14.0332 -20.3256 5.45298 -13.461 -20.3188 6.10647 -12.8825 -20.3129 6.75372 -12.2977 -20.3081 7.39472 -11.7067 -20.3042 8.02947 -11.1095 -20.3013 8.65797 -10.506 -20.2993 9.28023 -9.89623 -20.2983 9.89623 -9.28023 -20.2983 10.506 -8.65797 -20.2993 11.1095 -8.02947 -20.3013 11.7067 -7.39472 -20.3042 12.2977 -6.75372 -20.3081 12.8825 -6.10647 -20.3129 13.461 -5.45298 -20.3188 14.0332 -4.79323 -20.3256 14.5993 -4.12723 -20.3333 15.159 -3.45498 -20.3421 15.7125 -2.77648 -20.3518 16.2598 -2.09174 -20.3625 16.8008 -1.40074 -20.3742 17.3355 -0.703495 -20.3868 17.864 8.93361e-10 -20.4004 -0.703495 -17.3355 -20.3868 -4.10049e-10 -16.795 -20.3585 0.697677 -16.2486 -20.3322 1.38954 -15.6964 -20.3079 2.07558 -15.1383 -20.2857 2.7558 -14.5745 -20.2655 3.4302 -14.0048 -20.2473 4.09878 -13.4293 -20.2311 4.76155 -12.848 -20.2169 5.4185 -12.2609 -20.2048 6.06962 -11.6679 -20.1947 6.71493 -11.0692 -20.1866 7.35442 -10.4646 -20.1805 7.9881 -9.8542 -20.1765 8.61595 -9.23799 -20.1745 9.23799 -8.61595 -20.1745 9.8542 -7.9881 -20.1765 10.4646 -7.35442 -20.1805 11.0692 -6.71493 -20.1866 11.6679 -6.06962 -20.1947 12.2609 -5.4185 -20.2048 12.848 -4.76155 -20.2169 13.4293 -4.09878 -20.2311 14.0048 -3.4302 -20.2473 14.5745 -2.7558 -20.2655 15.1383 -2.07558 -20.2857 15.6964 -1.38954 -20.3079 16.2486 -0.697677 -20.3322 16.795 9.21335e-10 -20.3585 17.3355 0.703495 -20.3868 -1.40074 -16.8008 -20.3742 -0.697677 -16.2486 -20.3322 -4.18017e-10 -15.691 -20.2932 0.692289 -15.128 -20.2573 1.37919 -14.5596 -20.2243 2.06071 -13.9858 -20.1943 2.73683 -13.4067 -20.1673 3.40757 -12.8222 -20.1433 4.07292 -12.2322 -20.1224 4.73289 -11.6369 -20.1044 5.38746 -11.0362 -20.0894 6.03665 -10.4301 -20.0774 6.68045 -9.81865 -20.0684 7.31887 -9.20178 -20.0624 7.95189 -8.57953 -20.0594 8.57953 -7.95189 -20.0594 9.20178 -7.31887 -20.0624 9.81865 -6.68045 -20.0684 10.4301 -6.03665 -20.0774 11.0362 -5.38746 -20.0894 11.6369 -4.73289 -20.1044 12.2322 -4.07292 -20.1224 12.8222 -3.40757 -20.1433 13.4067 -2.73683 -20.1673 13.9858 -2.06071 -20.1943 14.5596 -1.37919 -20.2243 15.128 -0.692289 -20.2573 15.691 9.47302e-10 -20.2932 16.2486 0.697677 -20.3322 16.8008 1.40074 -20.3742 -2.09174 -16.2598 -20.3625 -1.38954 -15.6964 -20.3079 -0.692289 -15.128 -20.2573 -4.25302e-10 -14.5546 -20.2105 0.687333 -13.9764 -20.1676 1.36971 -13.3931 -20.1286 2.04713 -12.8049 -20.0935 2.71959 -12.2118 -20.0624 3.3871 -11.6136 -20.0351 4.04965 -11.0106 -20.0117 4.70724 -10.4025 -19.9922 5.35988 -9.78955 -19.9766 6.00756 -9.17161 -19.9649 6.65028 -8.54871 -19.9571 7.28805 -7.92086 -19.9532 7.92086 -7.28805 -19.9532 8.54871 -6.65028 -19.9571 9.17161 -6.00756 -19.9649 9.78955 -5.35988 -19.9766 10.4025 -4.70724 -19.9922 11.0106 -4.04965 -20.0117 11.6136 -3.3871 -20.0351 12.2118 -2.71959 -20.0624 12.8049 -2.04713 -20.0935 13.3931 -1.36971 -20.1286 13.9764 -0.687333 -20.1676 14.5546 9.7125e-10 -20.2105 15.128 0.692289 -20.2573 15.6964 1.38954 -20.3079 16.2598 2.09174 -20.3625 -2.77648 -15.7125 -20.3518 -2.07558 -15.1383 -20.2857 -1.37919 -14.5596 -20.2243 -0.687333 -13.9764 -20.1676 -4.31904e-10 -13.3886 -20.1157 0.682807 -12.7963 -20.0684 1.36109 -12.1995 -20.0259 2.03485 -11.5981 -19.9881 2.70408 -10.9922 -19.9551 3.36878 -10.3818 -19.9267 4.02896 -9.76693 -19.9031 4.68461 -9.14748 -19.8842 5.33574 -8.5235 -19.87 5.98235 -7.895 -19.8606 6.62442 -7.26197 -19.8559 7.26197 -6.62442 -19.8559 7.895 -5.98235 -19.8606 8.5235 -5.33574 -19.87 9.14748 -4.68461 -19.8842 9.76693 -4.02896 -19.9031 10.3818 -3.36878 -19.9267 10.9922 -2.70408 -19.9551 11.5981 -2.03485 -19.9881 12.1995 -1.36109 -20.0259 12.7963 -0.682807 -20.0684 13.3886 9.93195e-10 -20.1157 13.9764 0.687333 -20.1676 14.5596 1.37919 -20.2243 15.1383 2.07558 -20.2857 15.7125 2.77648 -20.3518 -3.45498 -15.159 -20.3421 -2.7558 -14.5745 -20.2655 -2.06071 -13.9858 -20.1943 -1.36971 -13.3931 -20.1286 -0.682807 -12.7963 -20.0684 -4.37829e-10 -12.1954 -20.0137 0.678713 -11.5904 -19.9644 1.35333 -10.9813 -19.9206 2.02385 -10.3681 -19.8823 2.69028 -9.75076 -19.8495 3.35262 -9.12937 -19.8221 4.01086 -8.50389 -19.8002 4.665 -7.87431 -19.7838 5.31505 -7.24064 -19.7728 5.96101 -6.60287 -19.7674 6.60287 -5.96101 -19.7674 7.24064 -5.31505 -19.7728 7.87431 -4.665 -19.7838 8.50389 -4.01086 -19.8002 9.12937 -3.35262 -19.8221 9.75076 -2.69028 -19.8495 10.3681 -2.02385 -19.8823 10.9813 -1.35333 -19.9206 11.5904 -0.678713 -19.9644 12.1954 1.01312e-09 -20.0137 12.7963 0.682807 -20.0684 13.3931 1.36971 -20.1286 13.9858 2.06071 -20.1943 14.5745 2.7558 -20.2655 15.159 3.45498 -20.3421 -4.12723 -14.5993 -20.3333 -3.4302 -14.0048 -20.2473 -2.73683 -13.4067 -20.1673 -2.04713 -12.8049 -20.0935 -1.36109 -12.1995 -20.0259 -0.678713 -11.5904 -19.9644 -4.43077e-10 -10.9776 -19.9091 0.675049 -10.3612 -19.8599 1.34643 -9.74107 -19.8168 2.01416 -9.11731 -19.78 2.67822 -8.48988 -19.7492 3.33861 -7.8588 -19.7246 3.99534 -7.22405 -19.7062 4.64841 -6.58563 -19.6939 5.29781 -5.94355 -19.6877 5.94355 -5.29781 -19.6877 6.58563 -4.64841 -19.6939 7.22405 -3.99534 -19.7062 7.8588 -3.33861 -19.7246 8.48988 -2.67822 -19.7492 9.11731 -2.01416 -19.78 9.74107 -1.34643 -19.8168 10.3612 -0.675049 -19.8599 10.9776 1.03104e-09 -19.9091 11.5904 0.678713 -19.9644 12.1995 1.36109 -20.0259 12.8049 2.04713 -20.0935 13.4067 2.73683 -20.1673 14.0048 3.4302 -20.2473 14.5993 4.12723 -20.3333 -4.79323 -14.0332 -20.3256 -4.09878 -13.4293 -20.2311 -3.40757 -12.8222 -20.1433 -2.71959 -12.2118 -20.0624 -2.03485 -11.5981 -19.9881 -1.35333 -10.9813 -19.9206 -0.675049 -10.3612 -19.8599 -4.47645e-10 -9.73783 -19.8059 0.671817 -9.11127 -19.7587 1.3404 -8.48148 -19.7182 2.00575 -7.84845 -19.6844 2.66787 -7.21219 -19.6574 3.32676 -6.5727 -19.6372 3.98241 -5.92998 -19.6237 4.63483 -5.28402 -19.6169 5.28402 -4.63483 -19.6169 5.92998 -