<?xml version="1.0"?> 
<VTKFile type="StructuredGrid" version="0.1"> 
<StructuredGrid WholeExtent="0 14 0 14 0 29"> 
<Piece Extent="0 14 0 14 0 29"> 
<PointData>
<DataArray type="Float32" Name="efield" format="ascii" NumberOfComponents="3"> 
29.0931 1.13378 9.01044 30.0947 -0.344083 8.19399 31.0964 -1.2221 7.45471 32.098 -1.70347 6.78903 33.0997 -1.91442 6.19362 34.1013 -1.93753 5.66533 35.103 -1.82906 5.20121 36.1046 -1.62868 4.79844 36.0675 -1.66573 4.33917 36.0304 -1.58456 3.66068 35.9933 -1.40625 2.75906 35.9562 -1.14711 1.62962 35.9191 -0.819902 0.266869 35.8819 -0.434803 -1.3356 35.8448 2.26772e-15 -3.1851 26.897 2.93189 9.42978 28.2655 2.32204 8.62409 29.5764 2.05428 7.8925 30.8439 2.01396 7.23062 32.0771 2.12568 6.63429 33.2826 2.3379 6.09961 34.4648 2.61427 5.62288 35.6271 2.92842 5.20058 35.7732 2.89271 4.71243 35.9071 2.93 3.99418 36.0305 3.02482 3.04091 36.1451 3.16501 1.84673 36.252 3.34094 0.404754 36.3522 3.54482 -1.29304 36.4465 3.77036 -3.25584 24.9134 4.94247 9.7846 26.4808 4.95574 8.98772 27.9665 5.15508 8.26229 29.3873 5.47286 7.60331 30.7546 5.8629 7.00608 32.0768 6.29277 6.46615 33.3597 6.73905 5.97932 34.6079 7.18457 5.54163 34.8695 7.18415 5.03089 35.1097 7.22292 4.28174 35.3315 7.28995 3.28857 35.537 7.37657 2.04464 35.7279 7.47589 0.542066 35.9059 7.58234 -1.22838 36.072 7.69139 -3.27734 23.0202 7.04345 10.0749 24.6836 7.52149 9.28504 26.2555 8.0861 8.5644 27.7516 8.69682 7.90758 29.1828 9.32543 7.30946 30.5572 9.95177 6.76525 31.8808 10.5612 6.27045 33.1583 11.143 5.8208 33.4835 11.1957 5.29265 33.781 11.2626 4.51987 34.0537 11.3364 3.49638 34.3041 11.4112 2.21488 34.5342 11.4826 0.666766 34.7456 11.5467 -1.15805 34.9397 11.6006 -3.27132 21.1504 9.16784 10.3007 22.8398 10.0005 9.51616 24.4353 10.8542 8.7991 25.9498 11.7053 8.1438 27.3927 12.5371 7.54488 28.771 13.3379 6.99734 30.0902 14.0991 6.49645 31.3544 14.8143 6.03781 31.7046 14.9277 5.49671 32.0228 15.037 4.70647 32.3118 15.1377 3.66072 32.5739 15.2264 2.3518 32.811 15.3004 0.770619 33.0248 15.3573 -1.09353 33.2167 15.3957 -3.25319 19.2655 11.2771 10.462 20.928 12.3834 9.68119 22.4989 13.4666 8.9666 23.988 14.5144 8.31229 25.4023 15.5181 7.71274 26.7475 16.4715 7.16279 28.0279 17.3705 6.6576 29.2469 18.212 6.19269 29.5936 18.3867 5.64262 29.9061 18.5445 4.84036 30.1869 18.6828 3.77936 30.4378 18.8001 2.45176 30.6605 18.8951 0.84815 30.8565 18.9667 -1.04258 31.0271 19.0144 -3.23353 17.3434 13.3492 10.5588 18.9341 14.6662 9.78018 20.4402 15.9305 9.06703 21.8675 17.1377 8.41329 23.2206 18.2846 7.81334 24.503 19.3694 7.26192 25.7178 20.3909 6.75417 26.8674 21.3485 6.28554 27.1897 21.5809 5.73019 27.478 21.7874 4.92088 27.7339 21.9675 3.85099 27.9589 22.1206 2.51253 28.1541 22.2466 0.895919 28.3208 22.3456 -1.01018 28.4598 22.4175 -3.21919 15.3724 15.3724 10.591 16.8487 16.8487 9.81317 18.2528 18.2528 9.1005 19.586 19.586 8.44695 20.8493 20.8493 7.84685 22.0441 22.0441 7.29494 23.1715 23.1715 6.78634 24.2327 24.2327 6.31648 24.5155 24.5155 5.75939 24.7669 24.7669 4.94776 24.9876 24.9876 3.87494 25.1782 25.1782 2.53291 25.3394 25.3394 0.912042 25.4718 25.4718 -0.99909 25.5761 25.5761 -3.214 13.3492 17.3434 10.5588 14.6662 18.9341 9.78018 15.9305 20.4402 9.06703 17.1377 21.8675 8.41329 18.2846 23.2206 7.81334 19.3694 24.503 7.26192 20.3909 25.7178 6.75417 21.3485 26.8674 6.28554 21.5809 27.1897 5.73019 21.7874 27.478 4.92088 21.9675 27.7339 3.85099 22.1206 27.9589 2.51253 22.2466 28.1541 0.895919 22.3456 28.3208 -1.01018 22.4175 28.4598 -3.21919 11.2771 19.2655 10.462 12.3834 20.928 9.68119 13.4666 22.4989 8.9666 14.5144 23.988 8.31229 15.5181 25.4023 7.71274 16.4715 26.7475 7.16279 17.3705 28.0279 6.6576 18.212 29.2469 6.19269 18.3867 29.5936 5.64262 18.5445 29.9061 4.84036 18.6828 30.1869 3.77936 18.8001 30.4378 2.45176 18.8951 30.6605 0.84815 18.9667 30.8565 -1.04258 19.0144 31.0271 -3.23353 9.16784 21.1504 10.3007 10.0005 22.8398 9.51616 10.8542 24.4353 8.7991 11.7053 25.9498 8.1438 12.5371 27.3927 7.54488 13.3379 28.771 6.99734 14.0991 30.0902 6.49645 14.8143 31.3544 6.03781 14.9277 31.7046 5.49671 15.037 32.0228 4.70647 15.1377 32.3118 3.66072 15.2264 32.5739 2.3518 15.3004 32.811 0.770619 15.3573 33.0248 -1.09353 15.3957 33.2167 -3.25319 7.04345 23.0202 10.0749 7.52149 24.6836 9.28504 8.0861 26.2555 8.5644 8.69682 27.7516 7.90758 9.32543 29.1828 7.30946 9.95177 30.5572 6.76525 10.5612 31.8808 6.27045 11.143 33.1583 5.8208 11.1957 33.4835 5.29265 11.2626 33.781 4.51987 11.3364 34.0537 3.49638 11.4112 34.3041 2.21488 11.4826 34.5342 0.666766 11.5467 34.7456 -1.15805 11.6006 34.9397 -3.27132 4.94247 24.9134 9.7846 4.95574 26.4808 8.98772 5.15508 27.9665 8.26229 5.47286 29.3873 7.60331 5.8629 30.7546 7.00608 6.29277 32.0768 6.46615 6.73905 33.3597 5.97932 7.18457 34.6079 5.54163 7.18415 34.8695 5.03089 7.22292 35.1097 4.28174 7.28995 35.3315 3.28857 7.37657 35.537 2.04464 7.47589 35.7279 0.542066 7.58234 35.9059 -1.22838 7.69139 36.072 -3.27734 2.93189 26.897 9.42978 2.32204 28.2655 8.62409 2.05428 29.5764 7.8925 2.01396 30.8439 7.23062 2.12568 32.0771 6.63429 2.3379 33.2826 6.09961 2.61427 34.4648 5.62288 2.92842 35.6271 5.20058 2.89271 35.7732 4.71243 2.93 35.9071 3.99418 3.02482 36.0305 3.04091 3.16501 36.1451 1.84673 3.34094 36.252 0.404754 3.54482 36.3522 -1.29304 3.77036 36.4465 -3.25584 1.13378 29.0931 9.01044 -0.344083 30.0947 8.19399 -1.2221 31.0964 7.45471 -1.70347 32.098 6.78903 -1.91442 33.0997 6.19362 -1.93753 34.1013 5.66533 -1.82906 35.103 5.20121 -1.62868 36.1046 4.79844 -1.66573 36.0675 4.33917 -1.58456 36.0304 3.66068 -1.40625 35.9933 2.75906 -1.14711 35.9562 1.62962 -0.819902 35.9191 0.266869 -0.434803 35.8819 -1.3356 1.13386e-14 35.8448 -3.1851 28.6922 0.83999 -2.98291 29.8137 -0.553286 -2.81965 30.933 -1.34993 -2.66478 32.05 -1.75531 -2.51807 33.1646 -1.89682 -2.37931 34.2769 -1.85772 -2.24832 35.3868 -1.69469 -2.12494 36.4943 -1.44764 -2.00902 36.0067 -1.60624 -1.87247 35.5195 -1.61016 -1.82345 35.0324 -1.48392 -1.86303 34.545 -1.24643 -1.99256 34.0568 -0.912501 -2.21371 33.5675 -0.493883 -2.52845 33.0765 -1.00416e-14 -2.93911 26.4863 2.61298 -3.04453 27.9834 2.09962 -2.90682 29.4186 1.92214 -2.76822 30.8061 1.96491 -2.62863 32.1553 2.15204 -2.48805 33.4727 2.43172 -2.34656 34.7629 2.76745 -2.20433 36.0292 3.13281 -2.06159 35.7467 2.94533 -1.90276 35.4522 2.86278 -1.83947 35.1473 2.86686 -1.87329 34.8336 2.94316 -2.00612 34.5118 3.08021 -2.24025 34.1827 3.2688 -2.57836 33.8467 3.50141 -3.0236 24.4947 4.60027 -3.09668 26.197 4.72057 -2.983 27.8118 5.01877 -2.85971 29.3561 5.42696 -2.72681 30.8414 5.89886 -2.58446 32.2762 6.402 -2.43298 33.6663 6.91303 -2.27279 35.0165 7.41485 -2.10449 34.872 7.23483 -1.92303 34.7068 7.12158 -1.8432 34.524 7.06184 -1.86708 34.3255 7.04505 -1.99718 34.113 7.06271 -2.23648 33.8878 7.10794 -2.58851 33.6507 7.1751 -3.05735 22.5961 6.68056 -3.13934 24.3985 7.2747 -3.04688 26.1027 7.9461 -2.93722 27.7241 8.65435 -2.81041 29.2742 9.37132 -2.6667 30.7608 10.077 -2.50654 32.1904 10.7569 -2.3306 33.5674 11.4005 -2.13974 33.509 11.2478 -1.93751 33.4248 11.1328 -1.84138 33.3176 11.0464 -1.85392 33.19 10.981 -1.97822 33.0437 10.9307 -2.21795 32.8802 10.8908 -2.57743 32.7004 10.8571 -3.06166 20.7238 8.78711 -3.17252 22.5545 9.74357 -3.0975 24.2836 10.7111 -2.99915 25.924 11.6664 -2.87752 27.4853 12.5929 -2.73289 28.9746 13.4791 -2.5658 30.3975 14.3165 -2.37708 31.7583 15.0993 -2.1678 31.7472 14.9831 -1.94815 31.7074 14.8826 -1.83777 31.6419 14.7918 -1.83962 31.5529 14.7059 -1.95731 31.4419 14.621 -2.19507 31.3105 14.534 -2.55793 31.1595 14.4422 -3.05171 18.8392 10.8815 -3.19622 20.6437 12.1178 -3.13414 22.3481 13.3211 -3.04427 23.9622 14.479 -2.92659 25.4933 15.5832 -2.78141 26.9472 16.6279 -2.60931 28.3283 17.6089 -2.41123 29.6403 18.5236 -2.18839 29.6476 18.4459 -1.95569 29.6261 18.3675 -1.83434 29.5781 18.2848 -1.82762 29.5053 18.1952 -1.93949 29.409 18.0963 -2.17466 29.2905 17.9865 -2.53866 29.1504 17.8643 -3.03795 16.9204 12.9415 -3.21045 18.6521 14.3936 -3.15632 20.2902 15.7831 -3.07169 21.8405 17.1056 -2.9565 23.3077 18.3584 -2.81103 24.6956 19.5397 -2.63592 26.0073 20.6487 -2.43215 27.2456 21.685 -2.20102 27.2501 21.6429 -1.96026 27.2284 21.588 -1.83203 27.1816 21.5189 -1.8198 27.1108 21.4344 -1.92777 27.0169 21.3336 -2.16091 26.9005 21.2158 -2.52509 26.7622 21.0803 -3.02717 14.9556 14.9556 -3.21519 16.5707 16.5707 -3.16375 18.1039 18.1039 -3.08089 19.5567 19.5567 -2.96654 20.9305 20.9305 -2.82099 22.2266 22.2266 -2.64488 23.4466 23.4466 -2.43919 24.5917 24.5917 -2.20528 24.5783 24.5783 -1.96179 24.5437 24.5437 -1.83122 24.4882 24.4882 -1.8171 24.4117 24.4117 -1.9237 24.3144 24.3144 -2.15609 24.1963 24.1963 -2.52024 24.0575 24.0575 -3.02316 12.9415 16.9204 -3.21045 14.3936 18.6521 -3.15632 15.7831 20.2902 -3.07169 17.1056 21.8405 -2.9565 18.3584 23.3077 -2.81103 19.5397 24.6956 -2.63592 20.6487 26.0073 -2.43215 21.685 27.2456 -2.20102 21.6429 27.2501 -1.96026 21.588 27.2284 -1.83203 21.5189 27.1816 -1.8198 21.4344 27.1108 -1.92777 21.3336 27.0169 -2.16091 21.2158 26.9005 -2.52509 21.0803 26.7622 -3.02717 10.8815 18.8392 -3.19622 12.1178 20.6437 -3.13414 13.3211 22.3481 -3.04427 14.479 23.9622 -2.92659 15.5832 25.4933 -2.78141 16.6279 26.9472 -2.60931 17.6089 28.3283 -2.41123 18.5236 29.6403 -2.18839 18.4459 29.6476 -1.95569 18.3675 29.6261 -1.83434 18.2848 29.5781 -1.82762 18.1952 29.5053 -1.93949 18.0963 29.409 -2.17466 17.9865 29.2905 -2.53866 17.8643 29.1504 -3.03795 8.78711 20.7238 -3.17252 9.74357 22.5545 -3.0975 10.7111 24.2836 -2.99915 11.6664 25.924 -2.87752 12.5929 27.4853 -2.73289 13.4791 28.9746 -2.5658 14.3165 30.3975 -2.37708 15.0993 31.7583 -2.1678 14.9831 31.7472 -1.94815 14.8826 31.7074 -1.83777 14.7918 31.6419 -1.83962 14.7059 31.5529 -1.95731 14.621 31.4419 -2.19507 14.534 31.3105 -2.55793 14.4422 31.1595 -3.05171 6.68056 22.5961 -3.13934 7.2747 24.3985 -3.04688 7.9461 26.1027 -2.93722 8.65435 27.7241 -2.81041 9.37132 29.2742 -2.6667 10.077 30.7608 -2.50654 10.7569 32.1904 -2.3306 11.4005 33.5674 -2.13974 11.2478 33.509 -1.93751 11.1328 33.4248 -1.84138 11.0464 33.3176 -1.85392 10.981 33.19 -1.97822 10.9307 33.0437 -2.21795 10.8908 32.8802 -2.57743 10.8571 32.7004 -3.06166 4.60027 24.4947 -3.09668 4.72057 26.197 -2.983 5.01877 27.8118 -2.85971 5.42696 29.3561 -2.72681 5.89886 30.8414 -2.58446 6.402 32.2762 -2.43298 6.91303 33.6663 -2.27279 7.41485 35.0165 -2.10449 7.23483 34.872 -1.92303 7.12158 34.7068 -1.8432 7.06184 34.524 -1.86708 7.04505 34.3255 -1.99718 7.06271 34.113 -2.23648 7.10794 33.8878 -2.58851 7.1751 33.6507 -3.05735 2.61298 26.4863 -3.04453 2.09962 27.9834 -2.90682 1.92214 29.4186 -2.76822 1.96491 30.8061 -2.62863 2.15204 32.1553 -2.48805 2.43172 33.4727 -2.34656 2.76745 34.7629 -2.20433 3.13281 36.0292 -2.06159 2.94533 35.7467 -1.90276 2.86278 35.4522 -1.83947 2.86686 35.1473 -1.87329 2.94316 34.8336 -2.00612 3.08021 34.5118 -2.24025 3.2688 34.1827 -2.57836 3.50141 33.8467 -3.0236 0.83999 28.6922 -2.98291 -0.553286 29.8137 -2.81965 -1.34993 30.933 -2.66478 -1.75531 32.05 -2.51807 -1.89682 33.1646 -2.37931 -1.85772 34.2769 -2.24832 -1.69469 35.3868 -2.12494 -1.44764 36.4943 -2.00902 -1.60624 36.0067 -1.87247 -1.61016 35.5195 -1.82345 -1.48392 35.0324 -1.86303 -1.24643 34.545 -1.99256 -0.912501 34.0568 -2.21371 -0.493883 33.5675 -2.52845 3.24555e-16 33.0765 -2.93911 28.4024 0.930118 -14.4815 29.4959 -0.53764 -13.6856 30.5938 -1.36115 -12.86 31.6965 -1.76531 -12.0008 32.8044 -1.88873 -11.1039 33.9177 -1.82161 -10.165 35.0369 -1.62532 -9.17965 36.1625 -1.34316 -8.14329 35.4246 -1.55655 -7.01776 34.6901 -1.60112 -6.00726 33.958 -1.50221 -5.11359 33.2274 -1.27918 -4.33896 32.497 -0.947036 -3.68597 31.7659 -0.517549 -3.15765 31.0327 2.74012e-15 -2.75751 26.1897 2.64202 -15.0485 27.6764 2.07162 -14.2976 29.1029 1.8732 -13.5018 30.4852 1.9179 -12.6568 31.8337 2.12158 -11.7581 33.1559 2.42692 -10.8016 34.4569 2.79349 -9.78288 35.7408 3.19196 -8.69757 35.2089 2.92906 -7.52195 34.6691 2.78524 -6.45639 34.1228 2.74103 -5.50254 33.5709 2.78119 -4.66234 33.014 2.89364 -3.93809 32.4522 3.0687 -3.33243 31.8856 3.29853 -2.84841 24.1914 4.56828 -15.5283 25.8974 4.64918 -14.8203 27.515 4.93475 -14.0528 29.063 5.34808 -13.2212 30.5544 5.83692 -12.3209 31.9986 6.36461 -11.3476 33.4023 6.9047 -10.2972 34.7706 7.43765 -9.16579 34.3816 7.1616 -7.94204 33.9766 6.96596 -6.82354 33.5584 6.83625 -5.81219 33.1289 6.76094 -4.9102 32.6894 6.73077 -4.1201 32.2409 6.73819 -3.44483 31.7838 6.77703 -2.88773 22.2901 6.59161 -15.9209 24.1064 7.16255 -15.251 25.8223 7.83014 -14.509 27.4553 8.54784 -13.6896 29.0176 9.28329 -12.7881 30.5184 10.0133 -11.8003 31.9644 10.7211 -10.7222 33.3609 11.3941 -9.55043 33.0659 11.1254 -8.28379 32.7501 10.9072 -7.11799 32.4165 10.729 -6.05537 32.0673 10.5827 -5.09862 31.7041 10.4614 -4.25084 31.3281 10.3595 -3.51557 30.94 10.2726 -2.89684 20.4208 8.64696 -16.2262 22.2717 9.59436 -15.588 24.0189 10.5664 -14.8671 25.6766 11.5356 -14.0581 27.2553 12.4826 -13.156 28.7628 13.3935 -12.1566 30.2051 14.258 -11.0561 31.5868 15.0688 -9.85148 31.3493 14.8176 -8.5495 31.0889 14.5936 -7.34461 30.8081 14.39 -6.2396 30.5092 14.2012 -5.23774 30.1936 14.0224 -4.34274 29.8625 13.85 -3.55882 29.5165 13.6807 -2.8908 18.5459 10.6966 -16.4443 20.3732 11.9357 -15.8297 22.0993 13.1507 -15.1247 23.7345 14.3267 -14.3237 25.2868 15.4533 -13.4214 26.762 16.5229 -12.4136 28.1649 17.5305 -11.2967 29.4993 18.4722 -10.0679 29.2923 18.2414 -8.73969 29.0628 18.0202 -7.5057 28.8128 17.8044 -6.36913 28.544 17.5907 -5.33373 28.2575 17.376 -4.40373 27.9541 17.1582 -3.58397 27.6343 16.9352 -2.87995 16.6435 12.7189 -16.5752 18.3976 14.183 -15.9751 20.0582 15.5899 -15.28 21.6315 16.9335 -14.4839 23.1219 18.21 -13.5816 24.5333 19.4165 -12.5688 25.8688 20.5514 -11.442 27.1308 21.6137 -10.1984 26.9347 21.4015 -8.85408 26.7192 21.1857 -7.60218 26.4855 20.9643 -6.44618 26.2344 20.7356 -5.39013 25.9665 20.4981 -4.43863 25.682 20.2508 -3.59692 25.3812 19.9925 -2.87096 14.7024 14.7024 -16.6188 16.336 16.336 -16.0236 17.8903 17.8903 -15.3319 19.366 19.366 -14.5375 20.7638 20.7638 -13.6352 22.0847 22.0847 -12.6207 23.3297 23.3297 -11.4905 24.4997 24.4997 -10.242 24.3004 24.3004 -8.89227 24.0879 24.0879 -7.63432 23.8621 23.8621 -6.47177 23.6226 23.6226 -5.40874 23.3692 23.3692 -4.44999 23.1015 23.1015 -3.6009 22.8193 22.8193 -2.86756 12.7189 16.6435 -16.5752 14.183 18.3976 -15.9751 15.5899 20.0582 -15.28 16.9335 21.6315 -14.4839 18.21 23.1219 -13.5816 19.4165 24.5333 -12.5688 20.5514 25.8688 -11.442 21.6137 27.1308 -10.1984 21.4015 26.9347 -8.85408 21.1857 26.7192 -7.60218 20.9643 26.4855 -6.44618 20.7356 26.2344 -5.39013 20.4981 25.9665 -4.43863 20.2508 25.682 -3.59692 19.9925 25.3812 -2.87096 10.6966 18.5459 -16.4443 11.9357 20.3732 -15.8297 13.1507 22.0993 -15.1247 14.3267 23.7345 -14.3237 15.4533 25.2868 -13.4214 16.5229 26.762 -12.4136 17.5305 28.1649 -11.2967 18.4722 29.4993 -10.0679 18.2414 29.2923 -8.73969 18.0202 29.0628 -7.5057 17.8044 28.8128 -6.36913 17.5907 28.544 -5.33373 17.376 28.2575 -4.40373 17.1582 27.9541 -3.58397 16.9352 27.6343 -2.87995 8.64696 20.4208 -16.2262 9.59436 22.2717 -15.588 10.5664 24.0189 -14.8671 11.5356 25.6766 -14.0581 12.4826 27.2553 -13.156 13.3935 28.7628 -12.1566 14.258 30.2051 -11.0561 15.0688 31.5868 -9.85148 14.8176 31.3493 -8.5495 14.5936 31.0889 -7.34461 14.39 30.8081 -6.2396 14.2012 30.5092 -5.23774 14.0224 30.1936 -4.34274 13.85 29.8625 -3.55882 13.6807 29.5165 -2.8908 6.59161 22.2901 -15.9209 7.16255 24.1064 -15.251 7.83014 25.8223 -14.509 8.54784 27.4553 -13.6896 9.28329 29.0176 -12.7881 10.0133 30.5184 -11.8003 10.7211 31.9644 -10.7222 11.3941 33.3609 -9.55043 11.1254 33.0659 -8.28379 10.9072 32.7501 -7.11799 10.729 32.4165 -6.05537 10.5827 32.0673 -5.09862 10.4614 31.7041 -4.25084 10.3595 31.3281 -3.51557 10.2726 30.94 -2.89684 4.56828 24.1914 -15.5283 4.64918 25.8974 -14.8203 4.93475 27.515 -14.0528 5.34808 29.063 -13.2212 5.83692 30.5544 -12.3209 6.36461 31.9986 -11.3476 6.9047 33.4023 -10.2972 7.43765 34.7706 -9.16579 7.1616 34.3816 -7.94204 6.96596 33.9766 -6.82354 6.83625 33.5584 -5.81219 6.76094 33.1289 -4.9102 6.73077 32.6894 -4.1201 6.73819 32.2409 -3.44483 6.77703 31.7838 -2.88773 2.64202 26.1897 -15.0485 2.07162 27.6764 -14.2976 1.8732 29.1029 -13.5018 1.9179 30.4852 -12.6568 2.12158 31.8337 -11.7581 2.42692 33.1559 -10.8016 2.79349 34.4569 -9.78288 3.19196 35.7408 -8.69757 2.92906 35.2089 -7.52195 2.78524 34.6691 -6.45639 2.74103 34.1228 -5.50254 2.78119 33.5709 -4.66234 2.89364 33.014 -3.93809 3.0687 32.4522 -3.33243 3.29853 31.8856 -2.84841 0.930118 28.4024 -14.4815 -0.53764 29.4959 -13.6856 -1.36115 30.5938 -12.86 -1.76531 31.6965 -12.0008 -1.88873 32.8044 -11.1039 -1.82161 33.9177 -10.165 -1.62532 35.0369 -9.17965 -1.34316 36.1625 -8.14329 -1.55655 35.4246 -7.01776 -1.60112 34.6901 -6.00726 -1.50221 33.958 -5.11359 -1.27918 33.2274 -4.33896 -0.947036 32.497 -3.68597 -0.517549 31.7659 -3.15765 8.52207e-15 31.0327 -2.75751 27.9406 0.986066 -24.8014 28.9698 -0.495534 -23.324 30.0092 -1.32872 -21.8001 31.0594 -1.74011 -20.2287 32.1207 -1.86923 -18.6087 33.1937 -1.80686 -16.939 34.2789 -1.61476 -15.2183 35.3769 -1.33658 -13.4453 34.7006 -1.52967 -11.6256 34.0359 -1.56106 -9.82121 33.3829 -1.45588 -8.03105 32.7415 -1.23352 -6.25404 32.1114 -0.909118 -4.48912 31.4928 -0.494716 -2.7352 30.8854 -9.81837e-16 -0.991225 25.7765 2.67262 -25.8114 27.1948 2.07308 -24.407 28.5581 1.85154 -22.9327 29.8828 1.87759 -21.3873 31.1799 2.06614 -19.7698 32.4568 2.35923 -18.0791 33.7191 2.71595 -16.3137 34.971 3.10653 -14.4724 34.4898 2.8657 -12.5641 34.0093 2.73968 -10.6535 33.5319 2.70911 -8.73941 33.0594 2.75875 -6.82054 32.5934 2.87641 -4.89563 32.1354 3.05218 -2.96335 31.6863 3.27792 -1.02236 23.82 4.56671 -26.6661 25.4561 4.608 -25.3239 27.0085 4.86051 -23.8916 28.4968 5.24619 -22.3683 29.9343 5.71202 -20.7529 31.3307 6.22078 -19.044 32.6932 6.74557 -17.2403 34.027 7.26647 -15.3403 33.6804 7.01326 -13.3561 33.3264 6.83855 -11.3545 32.9687 6.72801 -9.33404 32.6103 6.67017 -7.29344 32.2536 6.65576 -5.23118 31.9008 6.67713 -3.14572 31.5536 6.72795 -1.03543 21.9571 6.55446 -27.3653 23.7034 7.07821 -26.0742 25.3539 7.70514 -24.6766 26.9266 8.38796 -23.1715 28.4343 9.09375 -21.5576 29.8866 9.79895 -19.8337 31.2904 10.4864 -17.9984 32.6515 11.1432 -16.0499 32.3927 10.8976 -14.003 32.1214 10.7025 -11.9261 31.8415 10.5478 -9.8178 31.5563 10.4255 -7.67653 31.2686 10.3287 -5.50066 30.9809 10.2522 -3.28844 30.6951 10.1913 -1.038 20.1246 8.57269 -27.9091 21.9063 9.46718 -26.658 23.5888 10.3926 -25.2875 25.1869 11.321 -23.7965 26.7116 12.2327 -22.1838 28.171 13.1135 -20.4482 29.5714 13.9531 -18.588 30.918 14.7438 -16.6017 30.7122 14.5157 -14.5056 30.4911 14.3167 -12.3698 30.2585 14.1401 -10.1926 30.0175 13.9807 -7.97239 29.7708 13.8341 -5.70743 29.5208 13.697 -3.39577 29.2696 13.5663 -1.03536 18.286 10.5847 -28.2976 20.0455 11.7665 -27.0751 21.7083 12.93 -25.724 23.2855 14.0603 -24.2431 24.7851 15.1468 -22.6313 26.2136 16.1819 -20.8872 27.576 17.1603 -19.0093 28.8763 18.0783 -16.9957 28.6977 17.8708 -14.8644 28.5037 17.6761 -12.6862 28.2972 17.4905 -10.4596 28.081 17.311 -8.1827 27.8573 17.1354 -5.85373 27.628 16.9617 -3.47063 27.3951 16.7886 -1.03117 16.4201 12.5694 -28.5307 18.1081 13.9726 -27.3254 19.7075 15.3241 -25.9859 21.2248 16.618 -24.5111 22.6649 17.8503 -22.8999 24.0317 19.0184 -21.1507 25.3286 20.1205 -19.2621 26.5584 21.1558 -17.2322 26.3884 20.9674 -15.0796 26.2053 20.7797 -12.876 26.0113 20.5914 -10.6195 25.808 20.4015 -8.3085 25.5969 20.2093 -5.94099 25.3796 20.0143 -3.51485 25.1573 19.8162 -1.02779 14.5157 14.5157 -28.6084 16.0856 16.0856 -27.4088 17.5813 17.5813 -26.0732 19.0038 19.0038 -24.6005 20.3541 20.3541 -22.9894 21.6332 21.6332 -21.2386 22.8422 22.8422 -19.3463 23.9824 23.9824 -17.311 23.8077 23.8077 -15.1514 23.6252 23.6252 -12.9392 23.4356 23.4356 -10.6728 23.2394 23.2394 -8.35038 23.0371 23.0371 -5.96999 22.8294 22.8294 -3.52948 22.6168 22.6168 -1.02651 12.5694 16.4201 -28.5307 13.9726 18.1081 -27.3254 15.3241 19.7075 -25.9859 16.618 21.2248 -24.5111 17.8503 22.6649 -22.8999 19.0184 24.0317 -21.1507 20.1205 25.3286 -19.2621 21.1558 26.5584 -17.2322 20.9674 26.3884 -15.0796 20.7797 26.2053 -12.876 20.5914 26.0113 -10.6195 20.4015 25.808 -8.3085 20.2093 25.5969 -5.94099 20.0143 25.3796 -3.51485 19.8162 25.1573 -1.02779 10.5847 18.286 -28.2976 11.7665 20.0455 -27.0751 12.93 21.7083 -25.724 14.0603 23.2855 -24.2431 15.1468 24.7851 -22.6313 16.1819 26.2136 -20.8872 17.1603 27.576 -19.0093 18.0783 28.8763 -16.9957 17.8708 28.6977 -14.8644 17.6761 28.5037 -12.6862 17.4905 28.2972 -10.4596 17.311 28.081 -8.1827 17.1354 27.8573 -5.85373 16.9617 27.628 -3.47063 16.7886 27.3951 -1.03117 8.57269 20.1246 -27.9091 9.46718 21.9063 -26.658 10.3926 23.5888 -25.2875 11.321 25.1869 -23.7965 12.2327 26.7116 -22.1838 13.1135 28.171 -20.4482 13.9531 29.5714 -18.588 14.7438 30.918 -16.6017 14.5157 30.7122 -14.5056 14.3167 30.4911 -12.3698 14.1401 30.2585 -10.1926 13.9807 30.0175 -7.97239 13.8341 29.7708 -5.70743 13.697 29.5208 -3.39577 13.5663 29.2696 -1.03536 6.55446 21.9571 -27.3653 7.07821 23.7034 -26.0742 7.70514 25.3539 -24.6766 8.38796 26.9266 -23.1715 9.09375 28.4343 -21.5576 9.79895 29.8866 -19.8337 10.4864 31.2904 -17.9984 11.1432 32.6515 -16.0499 10.8976 32.3927 -14.003 10.7025 32.1214 -11.9261 10.5478 31.8415 -9.8178 10.4255 31.5563 -7.67653 10.3287 31.2686 -5.50066 10.2522 30.9809 -3.28844 10.1913 30.6951 -1.038 4.56671 23.82 -26.6661 4.608 25.4561 -25.3239 4.86051 27.0085 -23.8916 5.24619 28.4968 -22.3683 5.71202 29.9343 -20.7529 6.22078 31.3307 -19.044 6.74557 32.6932 -17.2403 7.26647 34.027 -15.3403 7.01326 33.6804 -13.3561 6.83855 33.3264 -11.3545 6.72801 32.9687 -9.33404 6.67017 32.6103 -7.29344 6.65576 32.2536 -5.23118 6.67713 31.9008 -3.14572 6.72795 31.5536 -1.03543 2.67262 25.7765 -25.8114 2.07308 27.1948 -24.407 1.85154 28.5581 -22.9327 1.87759 29.8828 -21.3873 2.06614 31.1799 -19.7698 2.35923 32.4568 -18.0791 2.71595 33.7191 -16.3137 3.10653 34.971 -14.4724 2.8657 34.4898 -12.5641 2.73968 34.0093 -10.6535 2.70911 33.5319 -8.73941 2.75875 33.0594 -6.82054 2.87641 32.5934 -4.89563 3.05218 32.1354 -2.96335 3.27792 31.6863 -1.02236 0.986066 27.9406 -24.8014 -0.495534 28.9698 -23.324 -1.32872 30.0092 -21.8001 -1.74011 31.0594 -20.2287 -1.86923 32.1207 -18.6087 -1.80686 33.1937 -16.939 -1.61476 34.2789 -15.2183 -1.33658 35.3769 -13.4453 -1.52967 34.7006 -11.6256 -1.56106 34.0359 -9.82121 -1.45588 33.3829 -8.03105 -1.23352 32.7415 -6.25404 -0.909118 32.1114 -4.48912 -0.494716 31.4928 -2.7352 8.57843e-15 30.8854 -0.991225 27.2236 1.01652 -34.6291 28.193 -0.460833 -32.5482 29.1792 -1.29131 -30.3915 30.1831 -1.70154 -28.1574 31.2056 -1.83096 -25.8446 32.2477 -1.77027 -23.4512 33.3104 -1.58131 -20.9756 34.3947 -1.30783 -18.4158 33.7712 -1.48897 -15.8073 33.1665 -1.51336 -13.2401 32.5803 -1.40641 -10.7128 32.0121 -1.18771 -8.22411 31.4616 -0.872654 -5.77262 30.9284 -0.473459 -3.35702 30.4121 -9.13165e-16 -0.976034 25.1204 2.65718 -36.047 26.4718 2.04137 -34.0738 27.7745 1.80576 -31.9907 29.0456 1.81952 -29.7964 30.2964 1.99735 -27.4894 31.535 2.2811 -25.0681 32.7676 2.62966 -22.5304 33.9989 3.01305 -19.8746 33.5614 2.7874 -17.1404 33.1319 2.67394 -14.4219 32.7127 2.65296 -11.7173 32.3055 2.7089 -9.02502 31.9117 2.82928 -6.34346 31.5325 3.00392 -3.67091 31.1689 3.22439 -1.00566 23.2181 4.49877 -37.2468 24.7841 4.5094 -35.3651 26.2723 4.73524 -33.3446 27.7028 5.0979 -31.1841 29.0899 5.54415 -28.8819 30.4437 6.0366 -26.4365 31.7721 6.54817 -23.8459 33.0812 7.05878 -21.108 32.7712 6.82267 -18.2666 32.4614 6.66438 -15.4188 32.1552 6.56922 -12.5627 31.8555 6.52538 -9.69652 31.5649 6.52327 -6.81835 31.2852 6.55495 -3.92616 31.0183 6.61381 -1.01787 21.4066 6.43112 -38.2285 23.0818 6.91361 -36.4219 24.6666 7.50412 -34.4528 26.1798 8.15523 -32.32 27.6351 8.83392 -30.0218 29.0426 9.51659 -27.5566 30.4101 10.186 -24.9223 31.7441 10.8292 -22.1167 31.5169 10.6019 -19.187 31.2844 10.426 -16.2327 31.0506 10.2912 -13.2518 30.8189 10.1889 -10.2423 30.5919 10.1124 -7.202 30.3722 10.0557 -4.12871 30.1617 10.0142 -1.01996 19.6246 8.39303 -38.992 21.3355 9.2382 -37.244 22.9524 10.1195 -35.3151 24.4909 11.0091 -33.2038 25.9628 11.8873 -30.9087 27.377 12.7401 -28.428 28.7405 13.5572 -25.7596 30.059 14.3311 -22.9012 29.8811 14.1221 -19.9025 29.6947 13.9445 -16.8648 29.5039 13.7913 -13.7863 29.3117 13.6571 -10.6647 29.121 13.5374 -7.49766 28.934 13.4283 -4.28269 28.7531 13.3269 -1.01709 17.8367 10.349 -39.5374 19.5267 11.4751 -37.8313 21.1252 12.5884 -35.9311 22.6439 13.6741 -33.8354 24.0917 14.7217 -31.5425 25.4758 15.7241 -29.0507 26.8017 16.6761 -26.3578 28.0743 17.5741 -23.4616 27.9208 17.3865 -20.4133 27.7583 17.215 -17.316 27.5899 17.0559 -14.1675 27.4184 16.9061 -10.9655 27.2461 16.763 -7.70751 27.075 16.6247 -4.39092 26.907 16.4895 -1.0128 16.0223 12.2784 -39.8646 17.643 13.6212 -38.1838 19.1803 14.9175 -36.3008 20.6413 16.1619 -34.2144 22.0315 17.3509 -31.9228 23.3556 18.4821 -29.4243 24.6175 19.5544 -26.7168 25.8207 20.5671 -23.7977 25.6737 20.3993 -20.7197 25.5197 20.2366 -17.5865 25.3606 20.0777 -14.3959 25.1983 19.9214 -11.1456 25.0342 19.7669 -7.83292 24.87 19.6137 -4.45519 24.7068 19.4613 -1.00938 14.1706 14.1706 -39.9736 15.6762 15.6762 -38.3012 17.1129 17.1129 -36.424 18.482 18.482 -34.3407 19.7853 19.7853 -32.0496 21.0243 21.0243 -29.5489 22.2005 22.2005 -26.8364 23.3158 23.3158 -23.9098 23.1627 23.1627 -20.8219 23.0072 23.0072 -17.6767 22.8497 22.8497 -14.472 22.6908 22.6908 -11.2055 22.531 22.531 -7.87464 22.3709 22.3709 -4.47651 22.2111 22.2111 -1.0081 12.2784 16.0223 -39.8646 13.6212 17.643 -38.1838 14.9175 19.1803 -36.3008 16.1619 20.6413 -34.2144 17.3509 22.0315 -31.9228 18.4821 23.3556 -29.4243 19.5544 24.6175 -26.7168 20.5671 25.8207 -23.7977 20.3993 25.6737 -20.7197 20.2366 25.5197 -17.5865 20.0777 25.3606 -14.3959 19.9214 25.1983 -11.1456 19.7669 25.0342 -7.83292 19.6137 24.87 -4.45519 19.4613 24.7068 -1.00938 10.349 17.8367 -39.5374 11.4751 19.5267 -37.8313 12.5884 21.1252 -35.9311 13.6741 22.6439 -33.8354 14.7217 24.0917 -31.5425 15.7241 25.4758 -29.0507 16.6761 26.8017 -26.3578 17.5741 28.0743 -23.4616 17.3865 27.9208 -20.4133 17.215 27.7583 -17.316 17.0559 27.5899 -14.1675 16.9061 27.4184 -10.9655 16.763 27.2461 -7.70751 16.6247 27.075 -4.39092 16.4895 26.907 -1.0128 8.39303 19.6246 -38.992 9.2382 21.3355 -37.244 10.1195 22.9524 -35.3151 11.0091 24.4909 -33.2038 11.8873 25.9628 -30.9087 12.7401 27.377 -28.428 13.5572 28.7405 -25.7596 14.3311 30.059 -22.9012 14.1221 29.8811 -19.9025 13.9445 29.6947 -16.8648 13.7913 29.5039 -13.7863 13.6571 29.3117 -10.6647 13.5374 29.121 -7.49766 13.4283 28.934 -4.28269 13.3269 28.7531 -1.01709 6.43112 21.4066 -38.2285 6.91361 23.0818 -36.4219 7.50412 24.6666 -34.4528 8.15523 26.1798 -32.32 8.83392 27.6351 -30.0218 9.51659 29.0426 -27.5566 10.186 30.4101 -24.9223 10.8292 31.7441 -22.1167 10.6019 31.5169 -19.187 10.426 31.2844 -16.2327 10.2912 31.0506 -13.2518 10.1889 30.8189 -10.2423 10.1124 30.5919 -7.202 10.0557 30.3722 -4.12871 10.0142 30.1617 -1.01996 4.49877 23.2181 -37.2468 4.5094 24.7841 -35.3651 4.73524 26.2723 -33.3446 5.0979 27.7028 -31.1841 5.54415 29.0899 -28.8819 6.0366 30.4437 -26.4365 6.54817 31.7721 -23.8459 7.05878 33.0812 -21.108 6.82267 32.7712 -18.2666 6.66438 32.4614 -15.4188 6.56922 32.1552 -12.5627 6.52538 31.8555 -9.69652 6.52327 31.5649 -6.81835 6.55495 31.2852 -3.92616 6.61381 31.0183 -1.01787 2.65718 25.1204 -36.047 2.04137 26.4718 -34.0738 1.80576 27.7745 -31.9907 1.81952 29.0456 -29.7964 1.99735 30.2964 -27.4894 2.2811 31.535 -25.0681 2.62966 32.7676 -22.5304 3.01305 33.9989 -19.8746 2.7874 33.5614 -17.1404 2.67394 33.1319 -14.4219 2.65296 32.7127 -11.7173 2.7089 32.3055 -9.02502 2.82928 31.9117 -6.34346 3.00392 31.5325 -3.67091 3.22439 31.1689 -1.00566 1.01652 27.2236 -34.6291 -0.460833 28.193 -32.5482 -1.29131 29.1792 -30.3915 -1.70154 30.1831 -28.1574 -1.83096 31.2056 -25.8446 -1.77027 32.2477 -23.4512 -1.58131 33.3104 -20.9756 -1.30783 34.3947 -18.4158 -1.48897 33.7712 -15.8073 -1.51336 33.1665 -13.2401 -1.40641 32.5803 -10.7128 -1.18771 32.0121 -8.22411 -0.872654 31.4616 -5.77262 -0.473459 30.9284 -3.35702 8.47185e-15 30.4121 -0.976034 26.2514 1.02319 -44.4568 27.1653 -0.433065 -41.7718 28.1039 -1.24869 -38.9817 29.0687 -1.64907 -36.0846 30.0611 -1.7728 -33.0784 31.0826 -1.71016 -29.961 32.1347 -1.52273 -26.7301 33.2191 -1.25429 -23.3833 32.6301 -1.43419 -19.9851 32.0685 -1.4591 -16.6543 31.5336 -1.35531 -13.389 31.0244 -1.1431 -10.1877 30.5404 -0.838409 -7.0487 30.0806 -0.453952 -3.97042 29.6445 -8.87407e-16 -0.9514 24.2211 2.59686 -46.2826 25.5072 1.97663 -43.74 26.7525 1.73584 -41.0477 27.9744 1.74403 -38.204 29.185 1.91613 -35.2071 30.3932 2.19407 -32.0546 31.6055 2.53674 -28.7444 32.8275 2.914 -25.2737 32.4175 2.69371 -21.7129 32.0241 2.58579 -18.1856 31.6496 2.56969 -14.6896 31.2955 2.62916 -11.2231 30.963 2.7511 -7.78398 30.6531 2.92481 -4.37022 30.3666 3.1414 -0.979777 22.3852 4.36504 -47.8276 23.8811 4.35318 -45.4058 25.3065 4.55874 -42.7966 26.6822 4.90345 -39.9983 28.0231 5.3342 -37.0091 29.3401 5.81363 -33.8268 30.642 6.31461 -30.4488 31.9356 6.81692 -26.8726 31.6479 6.58866 -23.1733 31.3691 6.44004 -19.4785 31.1025 6.35558 -15.7859 30.8513 6.32286 -12.0933 30.6176 6.33169 -8.39834 30.4035 6.37364 -4.69854 30.2107 6.44161 -0.991366 20.6377 6.22159 -49.0917 22.2409 6.66824 -46.769 23.7604 7.22676 -44.228 25.216 7.8499 -41.467 26.622 8.50479 -38.4842 27.9893 9.16793 -35.2772 29.3267 9.82209 -31.8435 30.6413 10.4544 -28.1805 30.4327 10.2364 -24.3673 30.2273 10.0731 -20.5347 30.0293 9.95331 -16.6804 29.842 9.86809 -12.8018 29.6682 9.81004 -8.8963 29.5105 9.77298 -4.9611 29.371 9.75167 -0.993219 18.9196 8.10751 -50.0749 20.5584 8.9067 -47.8295 22.1096 9.74682 -45.3417 23.5898 10.6003 -42.6098 25.0113 11.4477 -39.6318 26.3839 12.2752 -36.4056 27.7154 13.0728 -32.9286 29.0126 13.833 -29.1977 28.8506 13.6343 -25.2955 28.6886 13.4712 -21.3554 28.5303 13.3365 -17.3747 28.3793 13.2241 -13.3509 28.2383 13.1292 -9.28098 28.1098 13.0476 -5.16189 27.9961 12.976 -0.990315 17.1966 9.98852 -50.7771 18.8158 11.0609 -48.5871 20.3498 12.1256 -46.1374 21.8108 13.1685 -43.4263 23.2088 14.1794 -40.4519 