<?xml version="1.0"?> 
<VTKFile type="StructuredGrid" version="0.1"> 
<StructuredGrid WholeExtent="0 14 0 14 0 29"> 
<Piece Extent="0 14 0 14 0 29"> 
<PointData>
<DataArray type="Float32" Name="efield" format="ascii" NumberOfComponents="3"> 
-0.749128 10.402 -14.1507 -0.222408 10.7623 -12.9074 0.13691 11.1225 -11.8339 0.385342 11.4827 -10.9215 0.558456 11.8429 -10.1636 0.679751 12.2032 -9.55492 0.765377 12.5634 -9.0923 0.826799 12.9236 -8.77404 0.690588 13.8354 -8.23668 0.548667 14.7472 -7.18587 0.40976 15.659 -5.57547 0.280629 16.5707 -3.34796 0.166597 17.4825 -0.431827 0.0719104 18.3943 3.26192 1.25005e-15 19.3061 7.84444 -1.34003 9.61395 -14.7496 -1.09287 10.0681 -13.5073 -0.938357 10.5057 -12.4361 -0.845389 10.9306 -11.5259 -0.793265 11.3452 -10.7687 -0.767698 11.7515 -10.1584 -0.758526 12.1507 -9.69054 -0.758337 12.5438 -9.3626 -0.99891 13.5262 -8.8024 -1.22548 14.4983 -7.71533 -1.4324 15.4607 -6.05276 -1.61526 16.4142 -3.75315 -1.77066 17.3591 -0.738853 -1.89588 18.2959 3.08831 -1.98879 19.2249 7.85312 -2.01615 8.91108 -15.2563 -1.9679 9.41 -14.0135 -1.96826 9.88553 -12.9427 -1.99923 10.3422 -12.0329 -2.04841 10.783 -11.2751 -2.10701 11.2104 -10.6625 -2.16862 11.6259 -10.1898 -2.22853 12.0308 -9.854 -2.5766 13.0422 -9.27693 -2.89739 14.0349 -8.16377 -3.18745 15.0098 -6.46429 -3.44419 15.9677 -4.11411 -3.66564 16.9094 -1.03087 -3.85032 17.8355 2.89109 -3.99715 18.7464 7.78823 -2.73024 8.24619 -15.6709 -2.82985 8.76092 -14.4268 -2.95056 9.24952 -13.3553 -3.08179 9.71609 -12.4448 -3.21609 10.1636 -11.6856 -3.34811 10.5942 -11.0702 -3.47392 11.0096 -10.5932 -3.59065 11.411 -10.251 -4.04432 12.4203 -9.66144 -4.4621 13.4037 -8.52958 -4.84215 14.3622 -6.80427 -5.18315 15.2969 -4.41916 -5.48422 16.2084 -1.28837 -5.7448 17.0975 2.69972 -5.96459 17.9647 7.69121 -3.45659 7.59355 -15.9934 -3.66925 8.10505 -14.7477 -3.88519 8.58965 -13.675 -4.09831 9.05073 -12.7633 -4.30433 9.49079 -12.0024 -4.50013 9.91171 -11.3844 -4.6835 10.315 -10.9037 -4.8528 10.7017 -10.5564 -5.40726 11.6854 -9.95775 -5.92066 12.6372 -8.81278 -6.39227 13.558 -7.06982 -6.82166 14.449 -4.66124 -7.20872 15.3109 -1.49858 -7.55351 16.1444 2.53425 -7.85629 16.9502 7.59099 -4.18048 6.93846 -16.2238 -4.48111 7.43257 -14.9765 -4.7732 7.90029 -13.9027 -5.05361 8.34414 -12.9897 -5.32014 8.76604 -12.2273 -5.57124 9.16746 -11.6072 -5.80583 9.54958 -11.1236 -6.02319 9.91338 -10.7726 -6.67196 10.8536 -10.1677 -7.27709 11.7569 -9.0141 -7.83856 12.6244 -7.25974 -8.35658 13.4569 -4.83623 -8.83149 14.2554 -1.65341 -9.26378 15.0206 2.40797 -9.65403 15.7532 7.50716 -4.89352 6.2725 -16.362 -5.26312 6.73717 -15.1137 -5.61635 7.17717 -14.0391 -5.9521 7.59404 -13.1252 -6.26961 7.98899 -12.3617 -6.56846 8.36302 -11.7402 -6.8484 8.71694 -11.2548 -7.10932 9.05145 -10.9015 -7.84489 9.93418 -10.293 -8.53622 10.7762 -9.13443 -9.18381 11.5786 -7.37369 -9.78821 12.3421 -4.94192 -10.3501 13.0677 -1.748 -10.8701 13.756 2.32919 -11.349 14.4079 7.45224 -5.59131 5.59131 -16.408 -6.01481 6.01481 -15.1594 -6.41683 6.41683 -14.0845 -6.79773 6.79773 -13.1703 -7.15786 7.15786 -12.4064 -7.4976 7.4976 -11.7844 -7.81731 7.81731 -11.2984 -8.11734 8.11734 -10.9444 -8.93127 8.93127 -10.3347 -9.70205 9.70205 -9.17446 -10.4304 10.4304 -7.41166 -11.1172 11.1172 -4.97726 -11.7632 11.7632 -1.7798 -12.3691 12.3691 2.30245 -12.9358 12.9358 7.4332 -6.2725 4.89352 -16.362 -6.73717 5.26312 -15.1137 -7.17717 5.61635 -14.0391 -7.59404 5.9521 -13.1252 -7.98899 6.26961 -12.3617 -8.36302 6.56846 -11.7402 -8.71694 6.8484 -11.2548 -9.05145 7.10932 -10.9015 -9.93418 7.84489 -10.293 -10.7762 8.53622 -9.13443 -11.5786 9.18381 -7.37369 -12.3421 9.78821 -4.94192 -13.0677 10.3501 -1.748 -13.756 10.8701 2.32919 -14.4079 11.349 7.45224 -6.93846 4.18048 -16.2238 -7.43257 4.48111 -14.9765 -7.90029 4.7732 -13.9027 -8.34414 5.05361 -12.9897 -8.76604 5.32014 -12.2273 -9.16746 5.57124 -11.6072 -9.54958 5.80583 -11.1236 -9.91338 6.02319 -10.7726 -10.8536 6.67196 -10.1677 -11.7569 7.27709 -9.0141 -12.6244 7.83856 -7.25974 -13.4569 8.35658 -4.83623 -14.2554 8.83149 -1.65341 -15.0206 9.26378 2.40797 -15.7532 9.65403 7.50716 -7.59355 3.45659 -15.9934 -8.10505 3.66925 -14.7477 -8.58965 3.88519 -13.675 -9.05073 4.09831 -12.7633 -9.49079 4.30433 -12.0024 -9.91171 4.50013 -11.3844 -10.315 4.6835 -10.9037 -10.7017 4.8528 -10.5564 -11.6854 5.40726 -9.95775 -12.6372 5.92066 -8.81278 -13.558 6.39227 -7.06982 -14.449 6.82166 -4.66124 -15.3109 7.20872 -1.49858 -16.1444 7.55351 2.53425 -16.9502 7.85629 7.59099 -8.24619 2.73024 -15.6709 -8.76092 2.82985 -14.4268 -9.24952 2.95056 -13.3553 -9.71609 3.08179 -12.4448 -10.1636 3.21609 -11.6856 -10.5942 3.34811 -11.0702 -11.0096 3.47392 -10.5932 -11.411 3.59065 -10.251 -12.4203 4.04432 -9.66144 -13.4037 4.4621 -8.52958 -14.3622 4.84215 -6.80427 -15.2969 5.18315 -4.41916 -16.2084 5.48422 -1.28837 -17.0975 5.7448 2.69972 -17.9647 5.96459 7.69121 -8.91108 2.01615 -15.2563 -9.41 1.9679 -14.0135 -9.88553 1.96826 -12.9427 -10.3422 1.99923 -12.0329 -10.783 2.04841 -11.2751 -11.2104 2.10701 -10.6625 -11.6259 2.16862 -10.1898 -12.0308 2.22853 -9.854 -13.0422 2.5766 -9.27693 -14.0349 2.89739 -8.16377 -15.0098 3.18745 -6.46429 -15.9677 3.44419 -4.11411 -16.9094 3.66564 -1.03087 -17.8355 3.85032 2.89109 -18.7464 3.99715 7.78823 -9.61395 1.34003 -14.7496 -10.0681 1.09287 -13.5073 -10.5057 0.938357 -12.4361 -10.9306 0.845389 -11.5259 -11.3452 0.793265 -10.7687 -11.7515 0.767698 -10.1584 -12.1507 0.758526 -9.69054 -12.5438 0.758337 -9.3626 -13.5262 0.99891 -8.8024 -14.4983 1.22548 -7.71533 -15.4607 1.4324 -6.05276 -16.4142 1.61526 -3.75315 -17.3591 1.77066 -0.738853 -18.2959 1.89588 3.08831 -19.2249 1.98879 7.85312 -10.402 0.749128 -14.1507 -10.7623 0.222408 -12.9074 -11.1225 -0.13691 -11.8339 -11.4827 -0.385342 -10.9215 -11.8429 -0.558456 -10.1636 -12.2032 -0.679751 -9.55492 -12.5634 -0.765377 -9.0923 -12.9236 -0.826799 -8.77404 -13.8354 -0.690588 -8.23668 -14.7472 -0.548667 -7.18587 -15.659 -0.40976 -5.57547 -16.5707 -0.280629 -3.34796 -17.4825 -0.166597 -0.431827 -18.3943 -0.0719104 3.26192 -19.3061 3.75015e-15 7.84444 -0.00851651 9.00623 -8.30111 0.254751 9.65102 -7.86781 0.390463 10.2807 -7.36254 0.448393 10.8941 -6.78266 0.459541 11.4897 -6.12475 0.44415 12.066 -5.38448 0.415924 12.6214 -4.55652 0.384393 13.1542 -3.63439 0.515944 13.0458 -2.72981 0.565768 12.9211 -1.74128 0.548693 12.7779 -0.659318 0.475971 12.6138 0.527283 0.356188 12.426 1.83183 0.195888 12.211 3.27022 -1.70097e-14 11.9649 4.86155 -0.532622 8.24495 -8.72909 -0.551106 8.99091 -8.30475 -0.625751 9.70517 -7.81012 -0.73037 10.3897 -7.24272 -0.847731 11.0454 -6.59906 -0.966096 11.6722 -5.87454 -1.07726 12.2696 -5.06339 -1.17538 12.8368 -4.15848 -1.07846 12.8479 -3.24136 -1.03276 12.8311 -2.21774 -1.02744 12.785 -1.07583 -1.05415 12.7077 0.198556 -1.10634 12.5966 1.62254 -1.17894 12.4479 3.21687 -1.26799 12.2572 5.0069 -1.13691 7.56385 -9.09123 -1.36015 8.36093 -8.6707 -1.59801 9.11887 -8.18217 -1.83608 9.84011 -7.62331 -2.06455 10.5259 -6.99066 -2.27655 11.1767 -6.27949 -2.46721 11.7923 -5.48371 -2.63297 12.372 -4.59565 -2.57981 12.4637 -3.67399 -2.55371 12.5199 -2.6284 -2.54676 12.5397 -1.44498 -2.55268 12.5211 -0.106782 -2.5664 12.4612 1.40693 -2.5838 12.3562 3.12162 -2.60147 12.2007 5.06883 -1.77994 6.92149 -9.38753 -2.15812 7.73902 -8.96768 -2.52566 8.51365 -8.48211 -2.87449 9.24746 -7.92872 -3.19897 9.94156 -7.30414 -3.4951 10.5964 -6.6036 -3.76002 11.2118 -5.82081 -3.99162 11.7873 -4.94773 -3.9854 11.929 -4.02591 -3.98714 12.0309 -2.96704 -3.99103 12.0919 -1.75544 -3.99222 12.11 -0.371756 -3.98662 12.082 1.20793 -3.9706 12.0038 3.01336 -3.94089 11.8695 5.0817 -2.43885 6.29502 -9.61799 -2.93723 7.11198 -9.1972 -3.40934 7.88398 -8.71267 -3.85065 8.61252 -8.16253 -4.25799 9.29846 -7.54354 -4.62907 9.9421 -6.85095 -4.96223 10.5433 -6.07836 -5.25622 11.1015 -5.21749 -5.29608 11.2693 -4.29747 -5.32887 11.3955 -3.23092 -5.35021 11.4787 -2.00075 -5.35625 11.5167 -0.585663 -5.34342 11.5064 1.04088 -5.30826 11.4431 2.91212 -5.24724 11.3211 5.07004 -3.10044 5.67121 -9.78259 -3.69336 6.4715 -9.36038 -4.25036 7.22579 -8.8759 -4.76903 7.93504 -8.32752 -5.24766 8.59979 -7.71212 -5.68498 9.22019 -7.02499 -6.08006 9.79608 -6.25969 -6.43213 10.327 -5.40776 -6.51441 10.502 -4.48995 -6.57789 10.6358 -3.41923 -6.61917 10.7268 -2.17748 -6.63501 10.7725 -0.742001 -6.62209 10.7696 0.91567 -6.57686 10.7137 2.83142 -6.49528 10.5988 5.05085 -3.75709 5.04248 -9.88136 -4.4246 5.8122 -9.45799 -5.05045 6.53588 -8.97327 -5.63354 7.21396 -8.42571 -6.17307 7.84662 -7.81229 -6.66839 8.43383 -7.12834 -7.11897 8.97538 -6.36738 -7.52427 9.4708 -5.5209 -7.64322 9.63828 -4.60475 -7.73436 9.76688 -3.53202 -7.79501 9.85476 -2.28397 -7.82226 9.89938 -0.837047 -7.81287 9.8974 0.838389 -7.76301 9.84447 2.77986 -7.66807 9.73489 5.0352 -4.40485 4.40485 -9.91428 -5.13059 5.13059 -9.49047 -5.81157 5.81157 -9.00563 -6.44756 6.44756 -8.45831 -7.03835 7.03835 -7.84552 -7.58368 7.58368 -7.16261 -8.08321 8.08321 -6.4031 -8.53647 8.53647 -5.55843 -8.68447 8.68447 -4.6429 -8.79804 8.79804 -3.56957 -8.87498 8.87498 -2.31952 -8.91262 8.91262 -0.868919 -8.90766 8.90766 0.812288 -8.85599 8.85599 2.76216 -8.75239 8.75239 5.02932 -5.04248 3.75709 -9.88136 -5.8122 4.4246 -9.45799 -6.53588 5.05045 -8.97327 -7.21396 5.63354 -8.42571 -7.84662 6.17307 -7.81229 -8.43383 6.66839 -7.12834 -8.97538 7.11897 -6.36738 -9.4708 7.52427 -5.5209 -9.63828 7.64322 -4.60475 -9.76688 7.73436 -3.53202 -9.85476 7.79501 -2.28397 -9.89938 7.82226 -0.837047 -9.8974 7.81287 0.838389 -9.84447 7.76301 2.77986 -9.73489 7.66807 5.0352 -5.67121 3.10044 -9.78259 -6.4715 3.69336 -9.36038 -7.22579 4.25036 -8.8759 -7.93504 4.76903 -8.32752 -8.59979 5.24766 -7.71212 -9.22019 5.68498 -7.02499 -9.79608 6.08006 -6.25969 -10.327 6.43213 -5.40776 -10.502 6.51441 -4.48995 -10.6358 6.57789 -3.41923 -10.7268 6.61917 -2.17748 -10.7725 6.63501 -0.742001 -10.7696 6.62209 0.91567 -10.7137 6.57686 2.83142 -10.5988 6.49528 5.05085 -6.29502 2.43885 -9.61799 -7.11198 2.93723 -9.1972 -7.88398 3.40934 -8.71267 -8.61252 3.85065 -8.16253 -9.29846 4.25799 -7.54354 -9.9421 4.62907 -6.85095 -10.5433 4.96223 -6.07836 -11.1015 5.25622 -5.21749 -11.2693 5.29608 -4.29747 -11.3955 5.32887 -3.23092 -11.4787 5.35021 -2.00075 -11.5167 5.35625 -0.585663 -11.5064 5.34342 1.04088 -11.4431 5.30826 2.91212 -11.3211 5.24724 5.07004 -6.92149 1.77994 -9.38753 -7.73902 2.15812 -8.96768 -8.51365 2.52566 -8.48211 -9.24746 2.87449 -7.92872 -9.94156 3.19897 -7.30414 -10.5964 3.4951 -6.6036 -11.2118 3.76002 -5.82081 -11.7873 3.99162 -4.94773 -11.929 3.9854 -4.02591 -12.0309 3.98714 -2.96704 -12.0919 3.99103 -1.75544 -12.11 3.99222 -0.371756 -12.082 3.98662 1.20793 -12.0038 3.9706 3.01336 -11.8695 3.94089 5.0817 -7.56385 1.13691 -9.09123 -8.36093 1.36015 -8.6707 -9.11887 1.59801 -8.18217 -9.84011 1.83608 -7.62331 -10.5259 2.06455 -6.99066 -11.1767 2.27655 -6.27949 -11.7923 2.46721 -5.48371 -12.372 2.63297 -4.59565 -12.4637 2.57981 -3.67399 -12.5199 2.55371 -2.6284 -12.5397 2.54676 -1.44498 -12.5211 2.55268 -0.106782 -12.4612 2.5664 1.40693 -12.3562 2.5838 3.12162 -12.2007 2.60147 5.06883 -8.24495 0.532622 -8.72909 -8.99091 0.551106 -8.30475 -9.70517 0.625751 -7.81012 -10.3897 0.73037 -7.24272 -11.0454 0.847731 -6.59906 -11.6722 0.966096 -5.87454 -12.2696 1.07726 -5.06339 -12.8368 1.17538 -4.15848 -12.8479 1.07846 -3.24136 -12.8311 1.03276 -2.21774 -12.785 1.02744 -1.07583 -12.7077 1.05415 0.198556 -12.5966 1.10634 1.62254 -12.4479 1.17894 3.21687 -12.2572 1.26799 5.0069 -9.00623 0.00851651 -8.30111 -9.65102 -0.254751 -7.86781 -10.2807 -0.390463 -7.36254 -10.8941 -0.448393 -6.78266 -11.4897 -0.459541 -6.12475 -12.066 -0.44415 -5.38448 -12.6214 -0.415924 -4.55652 -13.1542 -0.384393 -3.63439 -13.0458 -0.515944 -2.72981 -12.9211 -0.565768 -1.74128 -12.7779 -0.548693 -0.659318 -12.6138 -0.475971 0.527283 -12.426 -0.356188 1.83183 -12.211 -0.195888 3.27022 -11.9649 1.99673e-14 4.86155 -0.262977 8.6537 -3.55527 0.160594 9.18137 -3.12802 0.375942 9.69718 -2.67721 0.464252 10.2004 -2.2066 0.474357 10.6904 -1.71959 0.43748 11.1668 -1.21928 0.374582 11.6293 -0.708415 0.300311 12.0777 -0.189483 0.456089 11.7315 0.158181 0.529998 11.3701 0.561177 0.534597 10.9904 1.02727 0.478817 10.5885 1.5657 0.368818 10.1602 2.18752 0.208537 9.69979 2.90623 -1.35976e-14 9.20069 3.73842 -0.712013 7.90406 -3.80322 -0.592061 8.56261 -3.4077 -0.589846 9.18604 -2.98151 -0.657655 9.77866 -2.52947 -0.764981 10.3429 -2.05569 -0.891364 10.8803 -1.56355 -1.02255 11.3916 -1.05576 -1.14828 11.8773 -0.534355 -0.997109 11.6317 -0.149143 -0.901351 11.3615 0.30257 -0.851115 11.0647 0.828685 -0.839093 10.7387 1.43862 -0.859976 10.3795 2.14372 -0.910073 9.98259 2.95776 -0.98708 9.54171 3.89767 -1.23494 7.22832 -4.01302 -1.34309 7.96146 -3.63911 -1.51195 8.64909 -3.23019 -1.71222 9.29614 -2.79194 -1.92429 9.90553 -2.32904 -2.13454 10.479 -1.84508 -2.33319 11.0175 -1.34266 -2.51308 11.5216 -0.823284 -2.37532 11.3486 -0.414177 -2.27117 11.1444 0.0697239 -2.19292 10.9076 0.636891 -2.13468 10.6357 1.29747 -2.09196 10.3254 2.0637 -2.0614 9.97218 2.95045 -2.04057 9.57014 3.97594 -1.79853 6.59323 -4.18467 -2.08353 7.36365 -3.82502 -2.39173 8.08436 -3.42766 -2.70458 8.75936 -2.99909 -3.0092 9.391 -2.54449 -3.2964 9.98063 -2.06767 -3.55945 10.529 -1.57108 -3.79333 11.0363 -1.05572 -3.6731 10.9137 -0.631849 -3.56843 10.7558 -0.127228 -3.47339 10.5614 0.467382 -3.3832 10.3281 1.16309 -3.29401 10.0528 1.97329 -3.20267 9.7309 2.91426 -3.1066 9.35674 4.00589 -2.38375 5.97978 -4.31818 -2.8083 6.76029 -3.96755 -3.23067 7.49025 -3.57753 -3.63889 8.17224 -3.15535 -4.02442 8.80766 -2.70666 -4.38099 9.39723 -2.23546 -4.70396 9.94121 -1.74408 -4.98981 10.4395 -1.23311 -4.88787 10.3497 -0.80046 -4.78666 10.223 -0.282959 -4.68155 10.058 0.329402 -4.56861 9.85235 1.04869 -4.44443 9.60293 1.88946 -4.30591 9.30536 2.86938 -4.15014 8.95405 4.01 -2.97937 5.37672 -4.41354 -3.51467 6.14558 -4.06826 -4.0303 6.86533 -3.68258 -4.51857 7.53695 -3.26432 -4.97383 8.16076 -2.81949 -5.39182 8.73677 -2.35226 -5.76932 9.26469 -1.86489 -6.10384 9.74409 -1.35764 -6.01857 9.67312 -0.920058 -5.92192 9.56587 -0.394989 -5.81026 9.42075 0.22822 -5.68029 9.2354 0.962419 -5.5288 9.00661 1.82314 -5.35259 8.73021 2.82917 -5.14831 8.40086 4.00342 -3.57878 4.77746 -4.47076 -4.20135 5.51571 -4.12826 -4.79213 6.20825 -3.74482 -5.34639 6.85438 -3.32863 -5.86049 7.45331 -2.88596 -6.33162 8.00421 -2.42108 -6.7576 8.50626 -1.93619 -7.13662 8.95864 -1.43139 -7.06447 8.89543 -0.991355 -6.97131 8.79881 -0.462367 -6.85427 8.66688 0.166641 -6.71043 8.49716 0.90904 -6.53668 8.2865 1.78098 -6.3296 8.03093 2.80201 -6.0853 7.72551 3.99588 -4.17851 4.17851 -4.48983 -4.86814 4.86814 -4.14819 -5.51764 5.51764 -3.76543 -6.12448 6.12448 -3.34989 -6.68658 6.68658 -2.90791 -7.20221 7.20221 -2.4438 -7.66995 7.66995 -1.95976 -8.08853 8.08853 -1.4558 -8.02429 8.02429 -1.01503 -7.93173 7.93173 -0.484838 -7.80853 7.80853 0.145987 -7.65203 7.65203 0.890996 -7.45912 7.45912 1.76655 -7.22611 7.22611 2.79246 -6.94855 6.94855 3.99279 -4.77746 3.57878 -4.47076 -5.51571 4.20135 -4.12826 -6.20825 4.79213 -3.74482 -6.85438 5.34639 -3.32863 -7.45331 5.86049 -2.88596 -8.00421 6.33162 -2.42108 -8.50626 6.7576 -1.93619 -8.95864 7.13662 -1.43139 -8.89543 7.06447 -0.991355 -8.79881 6.97131 -0.462367 -8.66688 6.85427 0.166641 -8.49716 6.71043 0.90904 -8.2865 6.53668 1.78098 -8.03093 6.3296 2.80201 -7.72551 6.0853 3.99588 -5.37672 2.97937 -4.41354 -6.14558 3.51467 -4.06826 -6.86533 4.0303 -3.68258 -7.53695 4.51857 -3.26432 -8.16076 4.97383 -2.81949 -8.73677 5.39182 -2.35226 -9.26469 5.76932 -1.86489 -9.74409 6.10384 -1.35764 -9.67312 6.01857 -0.920058 -9.56587 5.92192 -0.394989 -9.42075 5.81026 0.22822 -9.2354 5.68029 0.962419 -9.00661 5.5288 1.82314 -8.73021 5.35259 2.82917 -8.40086 5.14831 4.00342 -5.97978 2.38375 -4.31818 -6.76029 2.8083 -3.96755 -7.49025 3.23067 -3.57753 -8.17224 3.63889 -3.15535 -8.80766 4.02442 -2.70666 -9.39723 4.38099 -2.23546 -9.94121 4.70396 -1.74408 -10.4395 4.98981 -1.23311 -10.3497 4.88787 -0.80046 -10.223 4.78666 -0.282959 -10.058 4.68155 0.329402 -9.85235 4.56861 1.04869 -9.60293 4.44443 1.88946 -9.30536 4.30591 2.86938 -8.95405 4.15014 4.01 -6.59323 1.79853 -4.18467 -7.36365 2.08353 -3.82502 -8.08436 2.39173 -3.42766 -8.75936 2.70458 -2.99909 -9.391 3.0092 -2.54449 -9.98063 3.2964 -2.06767 -10.529 3.55945 -1.57108 -11.0363 3.79333 -1.05572 -10.9137 3.6731 -0.631849 -10.7558 3.56843 -0.127228 -10.5614 3.47339 0.467382 -10.3281 3.3832 1.16309 -10.0528 3.29401 1.97329 -9.7309 3.20267 2.91426 -9.35674 3.1066 4.00589 -7.22832 1.23494 -4.01302 -7.96146 1.34309 -3.63911 -8.64909 1.51195 -3.23019 -9.29614 1.71222 -2.79194 -9.90553 1.92429 -2.32904 -10.479 2.13454 -1.84508 -11.0175 2.33319 -1.34266 -11.5216 2.51308 -0.823284 -11.3486 2.37532 -0.414177 -11.1444 2.27117 0.0697239 -10.9076 2.19292 0.636891 -10.6357 2.13468 1.29747 -10.3254 2.09196 2.0637 -9.97218 2.0614 2.95045 -9.57014 2.04057 3.97594 -7.90406 0.712013 -3.80322 -8.56261 0.592061 -3.4077 -9.18604 0.589846 -2.98151 -9.77866 0.657655 -2.52947 -10.3429 0.764981 -2.05569 -10.8803 0.891364 -1.56355 -11.3916 1.02255 -1.05576 -11.8773 1.14828 -0.534355 -11.6317 0.997109 -0.149143 -11.3615 0.901351 0.30257 -11.0647 0.851115 0.828685 -10.7387 0.839093 1.43862 -10.3795 0.859976 2.14372 -9.98259 0.910073 2.95776 -9.54171 0.98708 3.89767 -8.6537 0.262977 -3.55527 -9.18137 -0.160594 -3.12802 -9.69718 -0.375942 -2.67721 -10.2004 -0.464252 -2.2066 -10.6904 -0.474357 -1.71959 -11.1668 -0.43748 -1.21928 -11.6293 -0.374582 -0.708415 -12.0777 -0.300311 -0.189483 -11.7315 -0.456089 0.158181 -11.3701 -0.529998 0.561177 -10.9904 -0.534597 1.02727 -10.5885 -0.478817 1.5657 -10.1602 -0.368818 2.18752 -9.69979 -0.208537 2.90623 -9.20069 1.57728e-14 3.73842 -0.314036 8.35329 -0.560331 0.125766 8.81755 -0.337827 0.353987 9.27471 -0.103724 0.453283 9.7242 0.142672 0.473032 10.1654 0.402129 0.444688 10.5977 0.675493 0.389328 11.0204 0.963705 0.32167 11.4326 1.2678 0.449189 11.159 1.49684 0.502189 10.8843 1.68253 0.493168 10.6106 1.82435 0.431661 10.34 1.9215 0.32513 10.0749 1.9729 0.179581 9.81743 1.97711 -7.20019e-15 9.57027 1.93238 -0.761009 7.6518 -0.71731 -0.609518 8.24201 -0.514537 -0.581204 8.80173 -0.293922 -0.62689 9.33559 -0.0550789 -0.715295 9.84608 0.202491 -0.825481 10.3344 0.4794 -0.942862 10.801 0.776379 -1.05695 11.2458 1.09428 -0.935397 11.062 1.34657 -0.865252 10.8678 1.55891 -0.8371 10.6663 1.7309 -0.843635 10.4605 1.86189 -0.879053 10.2532 1.95099 -0.938632 10.047 1.997 -1.01842 9.84469 1.9984 -1.27311 7.01544 -0.850138 -1.33921 7.67811 -0.663762 -1.47219 8.29972 -0.454448 -1.64155 8.88559 -0.222041 -1.82693 9.43867 0.0337346 -2.01415 9.96047 0.313274 -2.19302 10.4516 0.617098 -2.35605 10.912 0.945869 -2.24847 10.792 1.21623 -2.17334 10.6546 1.44902 -2.12396 10.5033 1.64383 -2.09511 10.3413 1.80007 -2.08262 10.1716 1.91688 -2.08316 9.99708 1.99316 -2.09396 9.8205 2.02748 -1.82059 6.41446 -0.958816 -2.05591 7.1138 -0.785669 -2.32075 7.76783 -0.58551 -2.59564 8.38093 -0.358363 -2.86704 8.95545 -0.104141 -3.1252 9.49248 0.177359 -3.36292 9.99231 0.486466 -3.57482 10.4547 0.823657 -3.48488 10.3782 1.10785 -3.41183 10.2795 1.35609 -3.35124 10.162 1.56793 -3.29972 10.029 1.74274 -3.25462 9.88337 1.87968 -3.21392 9.72805 1.97762 -3.17599 9.56575 2.03515 -2.38639 5.83178 -1.04334 -2.75549 6.54152 -0.880378 -3.12861 7.20523 -0.687275 -3.49314 7.82577 -0.464199 -3.83993 8.40449 -0.211217 -4.1622 8.94179 0.0717156 -4.4548 9.43746 0.384767 -4.7138 9.89091 0.728254 -4.64221 9.84194 1.02268 -4.57474 9.76804 1.28221 -4.50888 9.67247 1.50636 -4.44278 9.55822 1.69444 -4.37515 9.42807 1.84556 -4.30509 9.2847 1.95857 -4.23204 9.13073 2.03204 -2.96034 5.25727 -1.10372 -3.43574 5.95634 -0.947972 -3.89743 6.61103 -0.759873 -4.33728 7.22251 -0.539689 -4.74914 7.79096 -0.287601 -5.12825 8.31599 -0.00368293 -5.47088 8.79685 0.31211 -5.77408 9.23258 0.659974 -5.71934 9.19851 0.961437 -5.65845 9.13901 1.22868 -5.59043 9.05687 1.46116 -5.51475 8.95469 1.65812 -5.43121 8.83495 1.81865 -5.33991 8.70005 1.94154 -5.24117 8.55239 2.02533 -3.53649 4.68496 -1.13995 -4.09567 5.35497 -0.988506 -4.62872 5.98428 -0.803394 -5.13065 6.57227 -0.584939 -5.59742 7.11789 -0.333388 -6.02574 7.61989 -0.0488914 -6.41287 8.07695 0.268521 -6.75657 8.48773 0.618966 -6.71552 8.45862 0.924555 -6.6603 8.40571 1.19629 -6.59119 8.33115 1.43358 -6.50872 8.23701 1.63566 -6.41361 8.12532 1.80155 -6.30677 7.99811 1.93004 -6.18923 7.85745 2.01962 -4.11169 4.11169 -1.15202 -4.7352 4.7352 -1.00201 -5.3239 5.3239 -0.817896 -5.8752 5.8752 -0.600014 -6.38668 6.38668 -0.348642 -6.85615 6.85615 -0.0639551 -7.28167 7.28167 0.253992 -7.66147 7.66147 0.605291 -7.62946 7.62946 0.91224 -7.57741 7.57741 1.18545 -7.50663 7.50663 1.42432 -7.41851 7.41851 1.62807 -7.31451 7.31451 1.7957 -7.19615 7.19615 1.92599 -7.06507 7.06507 2.01744 -4.68496 3.53649 -1.13995 -5.35497 4.09567 -0.988506 -5.98428 4.62872 -0.803394 -6.57227 5.13065 -0.584939 -7.11789 5.59742 -0.333388 -7.61989 6.02574 -0.0488914 -8.07695 6.41287 0.268521 -8.48773 6.75657 0.618966 -8.45862 6.71552 0.924555 -8.40571 6.6603 1.19629 -8.33115 6.59119 1.43358 -8.23701 6.50872 1.63566 -8.12532 6.41361 1.80155 -7.99811 6.30677 1.93004 -7.85745 6.18923 2.01962 -5.25727 2.96034 -1.10372 -5.95634 3.43574 -0.947972 -6.61103 3.89743 -0.759873 -7.22251 4.33728 -0.539689 -7.79096 4.74914 -0.287601 -8.31599 5.12825 -0.00368293 -8.79685 5.47088 0.31211 -9.23258 5.77408 0.659974 -9.19851 5.71934 0.961437 -9.13901 5.65845 1.22868 -9.05687 5.59043 1.46116 -8.95469 5.51475 1.65812 -8.83495 5.43121 1.81865 -8.70005 5.33991 1.94154 -8.55239 5.24117 2.02533 -5.83178 2.38639 -1.04334 -6.54152 2.75549 -0.880378 -7.20523 3.12861 -0.687275 -7.82577 3.49314 -0.464199 -8.40449 3.83993 -0.211217 -8.94179 4.1622 0.0717156 -9.43746 4.4548 0.384767 -9.89091 4.7138 0.728254 -9.84194 4.64221 1.02268 -9.76804 4.57474 1.28221 -9.67247 4.50888 1.50636 -9.55822 4.44278 1.69444 -9.42807 4.37515 1.84556 -9.2847 4.30509 1.95857 -9.13073 4.23204 2.03204 -6.41446 1.82059 -0.958816 -7.1138 2.05591 -0.785669 -7.76783 2.32075 -0.58551 -8.38093 2.59564 -0.358363 -8.95545 2.86704 -0.104141 -9.49248 3.1252 0.177359 -9.99231 3.36292 0.486466 -10.4547 3.57482 0.823657 -10.3782 3.48488 1.10785 -10.2795 3.41183 1.35609 -10.162 3.35124 1.56793 -10.029 3.29972 1.74274 -9.88337 3.25462 1.87968 -9.72805 3.21392 1.97762 -9.56575 3.17599 2.03515 -7.01544 1.27311 -0.850138 -7.67811 1.33921 -0.663762 -8.29972 1.47219 -0.454448 -8.88559 1.64155 -0.222041 -9.43867 1.82693 0.0337346 -9.96047 2.01415 0.313274 -10.4516 2.19302 0.617098 -10.912 2.35605 0.945869 -10.792 2.24847 1.21623 -10.6546 2.17334 1.44902 -10.5033 2.12396 1.64383 -10.3413 2.09511 1.80007 -10.1716 2.08262 1.91688 -9.99708 2.08316 1.99316 -9.8205 2.09396 2.02748 -7.6518 0.761009 -0.71731 -8.24201 0.609518 -0.514537 -8.80173 0.581204 -0.293922 -9.33559 0.62689 -0.0550789 -9.84608 0.715295 0.202491 -10.3344 0.825481 0.4794 -10.801 0.942862 0.776379 -11.2458 1.05695 1.09428 -11.062 0.935397 1.34657 -10.8678 0.865252 1.55891 -10.6663 0.8371 1.7309 -10.4605 0.843635 1.86189 -10.2532 0.879053 1.95099 -10.047 0.938632 1.997 -9.84469 1.01842 1.9984 -8.35329 0.314036 -0.560331 -8.81755 -0.125766 -0.337827 -9.27471 -0.353987 -0.103724 -9.7242 -0.453283 0.142672 -10.1654 -0.473032 0.402129 -10.5977 -0.444688 0.675493 -11.0204 -0.389328 0.963705 -11.4326 -0.32167 1.2678 -11.159 -0.449189 1.49684 -10.8843 -0.502189 1.68253 -10.6106 -0.493168 1.82435 -10.34 -0.431661 1.9215 -10.0749 -0.32513 1.9729 -9.81743 -0.179581 1.97711 -9.57027 9.4289e-15 1.93238 -0.344276 8.01972 2.08885 0.10105 8.43898 2.18124 0.33419 8.85527 2.26718 0.438272 9.26891 2.34685 0.462662 9.68023 2.42044 0.438735 10.0895 2.48807 0.387567 10.4971 2.54986 0.323993 10.9032 2.60588 0.433353 10.699 2.59097 0.473514 10.4992 2.55088 0.457386 10.3053 2.48491 0.394877 10.1188 2.39221 0.293782 9.9412 2.27174 0.160405 9.77429 2.12229 -2.46315e-15 9.6199 1.9424 -0.780357 7.35931 2.01197 -0.610176 7.8996 2.09728 -0.565809 8.41331 2.17969 -0.597587 8.90609 2.25915 -0.674115 9.38141 2.33559 -0.774448 9.84147 2.40895 -0.883973 10.2878 2.47914 -0.992113 10.7213 2.54605 -0.892273 10.5988 2.5483 -0.840395 10.4715 2.52523 -0.826611 10.3419 2.47614 -0.843211 10.2126 2.40016 -0.884021 10.0858 2.29623 -0.943984 9.9637 2.16309 -1.01884 9.84871 1.99922 -1.27541 6.75787 1.94691 -1.31357 7.36819 2.02655 -1.42209 7.94103 2.10612 -1.57021 8.4828 2.18537 -1.73755 8.99752 2.26408 -1.91 9.48774 2.34196 -2.07743 9.95513 2.41874 -2.23237 10.4008 2.49412 -2.14932 10.3357 2.50938 -2.09687 10.2586 2.49874 -2.06786 10.1727 2.4614 -2.05665 10.0808 2.39638 -2.05873 9.98555 2.30251 -2.0704 9.88959 2.17838 -2.0886 9.79538 2.0223 -1.80225 6.18822 1.89368 -2.00282 6.83424 1.96887 -2.23666 7.43825 2.04623 -2.48432 8.00578 2.12535 -2.73242 8.54027 2.20584 -2.97142 9.04388 2.28726 -3.19434 9.51799 2.36914 -3.39595 9.96348 2.45102 -3.33296 9.9366 2.47602 -3.28634 9.8927 2.47433 -3.25127 9.83502 2.44504 -3.22396 9.76652 2.38704 -3.20144 9.68995 2.29899 -3.18136 9.60794 2.1793 -3.16184 9.52311 2.02607 -2.34523 5.63471 1.85229 -2.6744 6.29109 1.92413 -3.01134 6.90461 1.99984 -3.34371 7.47924 2.07889 -3.66273 8.01742 2.16075 -3.96201 8.52059 2.24484 -4.23675 8.98964 2.33055 -4.48335 9.42507 2.41723 -4.44089 9.42137 2.4493 -4.40323 9.39767 2.4539 -4.36748 9.35701 2.42999 -4.33145 9.30219 2.37633 -4.29357 9.23585 2.29142 -4.25269 9.16056 2.17352 -4.208 9.07887 2.0205 -2.89501 5.088 1.82271 -3.32645 5.7344 1.89223 -3.7478 6.33954 1.96681 -4.15145 6.90565 2.04583 -4.53179 7.43396 2.12867 -4.88459 7.92508 2.21463 -5.20666 8.37929 2.303 -5.49555 8.79665 2.39301 -5.4721 8.80424 2.42988 -5.44418 8.7909 2.43863 -5.4105 8.75923 2.41812 -5.37026 8.71168 2.36699 -5.32302 8.65061 2.28364 -5.26869 8.57837 2.16617 -5.20743 8.49733 2.01229 -3.44611 4.5426 1.80497 -3.95817 5.16121 1.87312 -4.44757 5.7423 1.94703 -4.91 6.28622 2.02605 -5.34214 6.79287 2.10948 -5.74137 7.26194 2.19655 -6.10566 7.69303 2.28649 -6.43342 8.08576 2.37845 -6.42588 8.09523 2.41811 -6.40673 8.08487 2.42922 -6.37599 8.05663 2.41058 -6.33398 8.01243 2.36076 -6.28124 7.9542 2.27809 -6.21854 7.88391 2.16055 -6.14682 7.80361 2.00578 -3.9956 3.9956 1.79906 -4.56955 4.56955 1.86675 -5.112 5.112 1.94044 -5.62118 5.62118 2.01946 -6.09554 6.09554 2.10309 -6.53371 6.53371 2.19053 -6.93456 6.93456 2.28099 -7.29715 7.29715 2.3736 -7.30104 7.30104 2.41417 -7.28822 7.28822 2.42605 -7.25976 7.25976 2.408 -7.2169 7.2169 2.35859 -7.16096 7.16096 2.27609 -7.09337 7.09337 2.15848 -7.01573 7.01573 2.00335 -4.5426 3.44611 1.80497 -5.16121 3.95817 1.87312 -5.7423 4.44757 1.94703 -6.28622 4.91 2.02605 -6.79287 5.34214 2.10948 -7.26194 5.74137 2.19655 -7.69303 6.10566 2.28649 -8.08576 6.43342 2.37845 -8.09523 6.42588 2.41811 -8.08487 6.40673 2.42922 -8.05663 6.37599 2.41058 -8.01243 6.33398 2.36076 -7.9542 6.28124 2.27809 -7.88391 6.21854 2.16055 -7.80361 6.14682 2.00578 -5.088 2.89501 1.82271 -5.7344 3.32645 1.89223 -6.33954 3.7478 1.96681 -6.90565 4.15145 2.04583 -7.43396 4.53179 2.12867 -7.92508 4.88459 2.21463 -8.37929 5.20666 2.303 -8.79665 5.49555 2.39301 -8.80424 5.4721 2.42988 -8.7909 5.44418 2.43863 -8.75923 5.4105 2.41812 -8.71168 5.37026 2.36699 -8.65061 5.32302 2.28364 -8.57837 5.26869 2.16617 -8.49733 5.20743 2.01229 -5.63471 2.34523 1.85229 -6.29109 2.6744 1.92413 -6.90461 3.01134 1.99984 -7.47924 3.34371 2.07889 -8.01742 3.66273 2.16075 -8.52059 3.96201 2.24484 -8.98964 4.23675 2.33055 -9.42507 4.48335 2.41723 -9.42137 4.44089 2.4493 -9.39767 4.40323 2.4539 -9.35701 4.36748 2.42999 -9.30219 4.33145 2.37633 -9.23585 4.29357 2.29142 -9.16056 4.25269 2.17352 -9.07887 4.208 2.0205 -6.18822 1.80225 1.89368 -6.83424 2.00282 1.96887 -7.43825 2.23666 2.04623 -8.00578 2.48432 2.12535 -8.54027 2.73242 2.20584 -9.04388 2.97142 2.28726 -9.51799 3.19434 2.36914 -9.96348 3.39595 2.45102 -9.9366 3.33296 2.47602 -9.8927 3.28634 2.47433 -9.83502 3.25127 2.44504 -9.76652 3.22396 2.38704 -9.68995 3.20144 2.29899 -9.60794 3.18136 2.1793 -9.52311 3.16184 2.02607 -6.75787 1.27541 1.94691 -7.36819 1.31357 2.02655 -7.94103 1.42209 2.10612 -8.4828 1.57021 2.18537 -8.99752 1.73755 2.26408 -9.48774 1.91 2.34196 -9.95513 2.07743 2.41874 -10.4008 2.23237 2.49412 -10.3357 2.14932 2.50938 -10.2586 2.09687 2.49874 -10.1727 2.06786 2.4614 -10.0808 2.05665 2.39638 -9.98555 2.05873 2.30251 -9.88959 2.0704 2.17838 -9.79538 2.0886 2.0223 -7.35931 0.780357 2.01197 -7.8996 0.610176 2.09728 -8.41331 0.565809 2.17969 -8.90609 0.597587 2.25915 -9.38141 0.674115 2.33559 -9.84147 0.774448 2.40895 -10.2878 0.883973 2.47914 -10.7213 0.992113 2.54605 -10.5988 0.892273 2.5483 -10.4715 0.840395 2.52523 -10.3419 0.826611 2.47614 -10.2126 0.843211 2.40016 -10.0858 0.884021 2.29623 -9.9637 0.943984 2.16309 -9.84871 1.01884 1.99922 -8.01972 0.344276 2.08885 -8.43898 -0.10105 2.18124 -8.85527 -0.33419 2.26718 -9.26891 -0.438272 2.34685 -9.68023 -0.462662 2.42044 -10.0895 -0.438735 2.48807 -10.4971 -0.387567 2.54986 -10.9032 -0.323993 2.60588 -10.699 -0.433353 2.59097 -10.4992 -0.473514 2.55088 -10.3053 -0.457386 2.48491 -10.1188 -0.394877 2.39221 -9.9412 -0.293782 2.27174 -9.77429 -0.160405 2.12229 -9.6199 5.22372e-15 1.9424 -0.352705 7.64765 4.73804 0.0900337 8.03662 4.70001 0.320546 8.42798 4.63788 0.422536 8.82316 4.5514 0.445498 9.22357 4.4402 0.420907 9.63071 4.30381 0.370041 10.0461 4.14161 0.308082 10.4713 3.95283 0.412553 10.3144 3.69303 0.448595 10.1687 3.42575 0.430317 10.035 3.15017 0.368559 9.91386 2.86536 0.271858 9.80607 2.57034 0.147102 9.7125 2.26404 -3.52263e-15 9.63412 1.94527 -0.770609 7.02342 4.74125 -0.591398 7.52854 4.70873 -0.539955 8.01195 4.65296 -0.566135 8.48048 4.5735 -0.638395 8.93879 4.4698 -0.73569 9.3903 4.34116 -0.843263 9.83776 4.18679 -0.950302 10.2835 4.00571 -0.859837 10.2037 3.75713 -0.81766 10.1259 3.49752 -0.812806 10.0522 3.22592 -0.83667 9.98431 2.94125 -0.882338 9.92406 2.64231 -0.944124 9.87313 2.32775 -1.01724 9.83324 1.99608 -1.24308 6.45375 4.74396 -1.26402 7.02636 4.71643 -1.35813 7.56578 4.66623 -1.49447 8.07972 4.59275 -1.65266 8.57341 4.49526 -1.81863 9.05067 4.37292 -1.98226 9.51445 4.22473 -2.13601 9.9