<?xml version="1.0"?> 
<VTKFile type="StructuredGrid" version="0.1"> 
<StructuredGrid WholeExtent="0 29 0 29 0 29"> 
<Piece Extent="0 29 0 29 0 29"> 
<PointData>
<DataArray type="Float32" Name="efield" format="ascii" NumberOfComponents="3"> 
1.65201e-13 -12.1218 -0.176036 0.399936 -11.6857 -0.178651 0.801162 -11.251 -0.181078 1.20368 -10.8175 -0.183319 1.60748 -10.3853 -0.185373 2.01258 -9.95444 -0.187241 2.41896 -9.52484 -0.188922 2.82664 -9.09653 -0.190415 3.2356 -8.66951 -0.191723 3.64585 -8.24377 -0.192843 4.0574 -7.81933 -0.193777 4.47023 -7.39618 -0.194524 4.88436 -6.97432 -0.195084 5.29977 -6.55375 -0.195458 5.71647 -6.13446 -0.195644 6.13446 -5.71647 -0.195644 6.55375 -5.29977 -0.195458 6.97432 -4.88436 -0.195084 7.39618 -4.47023 -0.194524 7.81933 -4.0574 -0.193777 8.24377 -3.64585 -0.192843 8.66951 -3.2356 -0.191723 9.09653 -2.82664 -0.190415 9.52484 -2.41896 -0.188922 9.95444 -2.01258 -0.187241 10.3853 -1.60748 -0.185373 10.8175 -1.20368 -0.183319 11.251 -0.801162 -0.181078 11.6857 -0.399936 -0.178651 12.1218 -3.2685e-13 -0.176036 -0.399936 -11.6857 -0.178651 1.48573e-13 -11.2522 -0.178659 0.401137 -10.8198 -0.178667 0.803474 -10.3887 -0.178675 1.20701 -9.95871 -0.178682 1.61175 -9.52995 -0.178688 2.01769 -9.1024 -0.178694 2.42483 -8.67604 -0.178699 2.83317 -8.25089 -0.178703 3.24272 -7.82694 -0.178707 3.65346 -7.40419 -0.17871 4.0654 -6.98264 -0.178713 4.47855 -6.56229 -0.178714 4.89289 -6.14314 -0.178716 5.30844 -5.72519 -0.178716 5.72519 -5.30844 -0.178716 6.14314 -4.89289 -0.178716 6.56229 -4.47855 -0.178714 6.98264 -4.0654 -0.178713 7.40419 -3.65346 -0.17871 7.82694 -3.24272 -0.178707 8.25089 -2.83317 -0.178703 8.67604 -2.42483 -0.178699 9.1024 -2.01769 -0.178694 9.52995 -1.61175 -0.178688 9.95871 -1.20701 -0.178682 10.3887 -0.803474 -0.178675 10.8198 -0.401137 -0.178667 11.2522 -2.90694e-13 -0.178659 11.6857 0.399936 -0.178651 -0.801162 -11.251 -0.181078 -0.401137 -10.8198 -0.178667 1.27781e-13 -10.3898 -0.176429 0.402249 -9.96084 -0.174363 0.805609 -9.53302 -0.172468 1.21008 -9.10631 -0.170746 1.61567 -8.68071 -0.169197 2.02236 -8.25623 -0.167819 2.43017 -7.83285 -0.166614 2.83909 -7.41059 -0.16558 3.24912 -6.98944 -0.164719 3.66026 -6.5694 -0.164031 4.07252 -6.15048 -0.163514 4.48589 -5.73266 -0.16317 4.90037 -5.31596 -0.162997 5.31596 -4.90037 -0.162997 5.73266 -4.48589 -0.16317 6.15048 -4.07252 -0.163514 6.5694 -3.66026 -0.164031 6.98944 -3.24912 -0.164719 7.41059 -2.83909 -0.16558 7.83285 -2.43017 -0.166614 8.25623 -2.02236 -0.167819 8.68071 -1.61567 -0.169197 9.10631 -1.21008 -0.170746 9.53302 -0.805609 -0.172468 9.96084 -0.402249 -0.174363 10.3898 -2.5985e-13 -0.176429 10.8198 0.401137 -0.178667 11.251 0.801162 -0.181078 -1.20368 -10.8175 -0.183319 -0.803474 -10.3887 -0.178675 -0.402249 -9.96084 -0.174363 1.05356e-13 -9.53404 -0.170382 0.403271 -9.10827 -0.166733 0.807566 -8.68352 -0.163415 1.21288 -8.25979 -0.16043 1.61922 -7.83708 -0.157776 2.02659 -7.41539 -0.155454 2.43497 -6.99473 -0.153464 2.84438 -6.5751 -0.151805 3.25481 -6.15648 -0.150478 3.66627 -5.73889 -0.149483 4.07875 -5.32232 -0.148819 4.49225 -4.90677 -0.148488 4.90677 -4.49225 -0.148488 5.32232 -4.07875 -0.148819 5.73889 -3.66627 -0.149483 6.15648 -3.25481 -0.150478 6.5751 -2.84438 -0.151805 6.99473 -2.43497 -0.153464 7.41539 -2.02659 -0.155454 7.83708 -1.61922 -0.157776 8.25979 -1.21288 -0.16043 8.68352 -0.807566 -0.163415 9.10827 -0.403271 -0.166733 9.53404 -2.30826e-13 -0.170382 9.96084 0.402249 -0.174363 10.3887 0.803474 -0.178675 10.8175 1.20368 -0.183319 -1.60748 -10.3853 -0.185373 -1.20701 -9.95871 -0.178682 -0.805609 -9.53302 -0.172468 -0.403271 -9.10827 -0.166733 8.12633e-14 -8.68445 -0.161475 0.404205 -8.26157 -0.156695 0.809345 -7.83961 -0.152394 1.21542 -7.4186 -0.14857 1.62243 -6.99851 -0.145224 2.03037 -6.57936 -0.142357 2.43924 -6.16115 -0.139967 2.84905 -5.74387 -0.138055 3.2598 -5.32752 -0.136621 3.67147 -4.91211 -0.135665 4.08408 -4.49763 -0.135187 4.49763 -4.08408 -0.135187 4.91211 -3.67147 -0.135665 5.32752 -3.2598 -0.136621 5.74387 -2.84905 -0.138055 6.16115 -2.43924 -0.139967 6.57936 -2.03037 -0.142357 6.99851 -1.62243 -0.145224 7.4186 -1.21542 -0.14857 7.83961 -0.809345 -0.152394 8.26157 -0.404205 -0.156695 8.68445 -2.06788e-13 -0.161475 9.10827 0.403271 -0.166733 9.53302 0.805609 -0.172468 9.95871 1.20701 -0.178682 10.3853 1.60748 -0.185373 -2.01258 -9.95444 -0.187241 -1.61175 -9.52995 -0.178688 -1.21008 -9.10631 -0.170746 -0.807566 -8.68352 -0.163415 -0.404205 -8.26157 -0.156695 5.47159e-14 -7.84046 -0.150586 0.40505 -7.4202 -0.145088 0.810946 -7.00078 -0.140201 1.21769 -6.58221 -0.135925 1.62527 -6.16449 -0.132259 2.0337 -5.7476 -0.129205 2.44298 -5.33157 -0.126761 2.8531 -4.91638 -0.124928 3.26406 -4.50203 -0.123706 3.67588 -4.08853 -0.123096 4.08853 -3.67588 -0.123096 4.50203 -3.26406 -0.123706 4.91638 -2.8531 -0.124928 5.33157 -2.44298 -0.126761 5.7476 -2.0337 -0.129205 6.16449 -1.62527 -0.132259 6.58221 -1.21769 -0.135925 7.00078 -0.810946 -0.140201 7.4202 -0.40505 -0.145088 7.84046 -1.86908e-13 -0.150586 8.26157 0.404205 -0.156695 8.68352 0.807566 -0.163415 9.10631 1.21008 -0.170746 9.52995 1.61175 -0.178688 9.95444 2.01258 -0.187241 -2.41896 -9.52484 -0.188922 -2.01769 -9.1024 -0.178694 -1.61567 -8.68071 -0.169197 -1.21288 -8.25979 -0.16043 -0.809345 -7.83961 -0.152394 -0.40505 -7.4202 -0.145088 2.47553e-14 -7.00154 -0.138513 0.405807 -6.58363 -0.132669 0.812369 -6.16649 -0.127555 1.21969 -5.75009 -0.123172 1.62776 -5.33446 -0.119519 2.03659 -4.91958 -0.116597 2.44618 -4.50546 -0.114405 2.85652 -4.09209 -0.112944 3.26762 -3.67948 -0.112213 3.67948 -3.26762 -0.112213 4.09209 -2.85652 -0.112944 4.50546 -2.44618 -0.114405 4.91958 -2.03659 -0.116597 5.33446 -1.62776 -0.119519 5.75009 -1.21969 -0.123172 6.16649 -0.812369 -0.127555 6.58363 -0.405807 -0.132669 7.00154 -1.71024e-13 -0.138513 7.4202 0.40505 -0.145088 7.83961 0.809345 -0.152394 8.25979 1.21288 -0.16043 8.68071 1.61567 -0.169197 9.1024 2.01769 -0.178694 9.52484 2.41896 -0.188922 -2.82664 -9.09653 -0.190415 -2.42483 -8.67604 -0.178699 -2.02236 -8.25623 -0.167819 -1.61922 -7.83708 -0.157776 -1.21542 -7.4186 -0.14857 -0.810946 -7.00078 -0.140201 -0.405807 -6.58363 -0.132669 -6.691e-15 -6.16715 -0.125974 0.406474 -5.75134 -0.120115 0.813615 -5.33619 -0.115094 1.22142 -4.92171 -0.110909 1.6299 -4.5079 -0.107562 2.03904 -4.09476 -0.105051 2.44885 -3.68228 -0.103377 2.85933 -3.27047 -0.10254 3.27047 -2.85933 -0.10254 3.68228 -2.44885 -0.103377 4.09476 -2.03904 -0.105051 4.5079 -1.6299 -0.107562 4.92171 -1.22142 -0.110909 5.33619 -0.813615 -0.115094 5.75134 -0.406474 -0.120115 6.16715 -1.61081e-13 -0.125974 6.58363 0.405807 -0.132669 7.00078 0.810946 -0.140201 7.4186 1.21542 -0.14857 7.83708 1.61922 -0.157776 8.25623 2.02236 -0.167819 8.67604 2.42483 -0.178699 9.09653 2.82664 -0.190415 -3.2356 -8.66951 -0.191723 -2.83317 -8.25089 -0.178703 -2.43017 -7.83285 -0.166614 -2.02659 -7.41539 -0.155454 -1.62243 -6.99851 -0.145224 -1.21769 -6.58221 -0.135925 -0.812369 -6.16649 -0.127555 -0.406474 -5.75134 -0.120115 -3.95551e-14 -5.33677 -0.113605 0.407052 -4.92278 -0.108026 0.814682 -4.50937 -0.103376 1.22289 -4.09654 -0.0996559 1.63168 -3.68428 -0.096866 2.04104 -3.2726 -0.095006 2.45098 -2.8615 -0.0940761 2.8615 -2.45098 -0.0940761 3.2726 -2.04104 -0.095006 3.68428 -1.63168 -0.096866 4.09654 -1.22289 -0.0996559 4.50937 -0.814682 -0.103376 4.92278 -0.407052 -0.108026 5.33677 -1.53808e-13 -0.113605 5.75134 0.406474 -0.120115 6.16649 0.812369 -0.127555 6.58221 1.21769 -0.135925 6.99851 1.62243 -0.145224 7.41539 2.02659 -0.155454 7.83285 2.43017 -0.166614 8.25089 2.83317 -0.178703 8.66951 3.2356 -0.191723 -3.64585 -8.24377 -0.192843 -3.24272 -7.82694 -0.178707 -2.83909 -7.41059 -0.16558 -2.43497 -6.99473 -0.153464 -2.03037 -6.57936 -0.142357 -1.62527 -6.16449 -0.132259 -1.21969 -5.75009 -0.123172 -0.813615 -5.33619 -0.115094 -0.407052 -4.92278 -0.108026 -7.58786e-14 -4.50986 -0.101967 0.407541 -4.09743 -0.0969185 0.815571 -3.68548 -0.0928796 1.22409 -3.27403 -0.0898504 1.6331 -2.86306 -0.0878309 2.0426 -2.45259 -0.0868212 2.45259 -2.0426 -0.0868212 2.86306 -1.6331 -0.0878309 3.27403 -1.22409 -0.0898504 3.68548 -0.815571 -0.0928796 4.09743 -0.407541 -0.0969185 4.50986 -1.50652e-13 -0.101967 4.92278 0.407052 -0.108026 5.33619 0.813615 -0.115094 5.75009 1.21969 -0.123172 6.16449 1.62527 -0.132259 6.57936 2.03037 -0.142357 6.99473 2.43497 -0.153464 7.41059 2.83909 -0.16558 7.82694 3.24272 -0.178707 8.24377 3.64585 -0.192843 -4.0574 -7.81933 -0.193777 -3.65346 -7.40419 -0.17871 -3.24912 -6.98944 -0.164719 -2.84438 -6.5751 -0.151805 -2.43924 -6.16115 -0.139967 -2.0337 -5.7476 -0.129205 -1.62776 -5.33446 -0.119519 -1.22142 -4.92171 -0.110909 -0.814682 -4.50937 -0.103376 -0.407541 -4.09743 -0.0969185 -1.13706e-13 -3.68588 -0.0915375 0.407941 -3.27474 -0.0872327 0.816283 -2.864 -0.0840041 1.22502 -2.45365 -0.0818517 1.63417 -2.04371 -0.0807755 2.04371 -1.63417 -0.0807755 2.45365 -1.22502 -0.0818517 2.864 -0.816283 -0.0840041 3.27474 -0.407941 -0.0872327 3.68588 -1.5245e-13 -0.0915375 4.09743 0.407541 -0.0969185 4.50937 0.814682 -0.103376 4.92171 1.22142 -0.110909 5.33446 1.62776 -0.119519 5.7476 2.0337 -0.129205 6.16115 2.43924 -0.139967 6.5751 2.84438 -0.151805 6.98944 3.24912 -0.164719 7.40419 3.65346 -0.17871 7.81933 4.0574 -0.193777 -4.47023 -7.39618 -0.194524 -4.0654 -6.98264 -0.178713 -3.66026 -6.5694 -0.164031 -3.25481 -6.15648 -0.150478 -2.84905 -5.74387 -0.138055 -2.44298 -5.33157 -0.126761 -2.03659 -4.91958 -0.116597 -1.6299 -4.5079 -0.107562 -1.22289 -4.09654 -0.0996559 -0.815571 -3.68548 -0.0928796 -0.407941 -3.27474 -0.0872327 -1.53969e-13 -2.86431 -0.0827152 0.408253 -2.45419 -0.079327 0.816817 -2.04438 -0.0770683 1.22569 -1.63488 -0.0759389 1.63488 -1.22569 -0.0759389 2.04438 -0.816817 -0.0770683 2.45419 -0.408253 -0.079327 2.86431 -1.57776e-13 -0.0827152 3.27474 0.407941 -0.0872327 3.68548 0.815571 -0.0928796 4.09654 1.22289 -0.0996559 4.5079 1.6299 -0.107562 4.91958 2.03659 -0.116597 5.33157 2.44298 -0.126761 5.74387 2.84905 -0.138055 6.15648 3.25481 -0.150478 6.5694 3.66026 -0.164031 6.98264 4.0654 -0.178713 7.39618 4.47023 -0.194524 -4.88436 -6.97432 -0.195084 -4.47855 -6.56229 -0.178714 -4.07252 -6.15048 -0.163514 -3.66627 -5.73889 -0.149483 -3.2598 -5.32752 -0.136621 -2.8531 -4.91638 -0.124928 -2.44618 -4.50546 -0.114405 -2.03904 -4.09476 -0.105051 -1.63168 -3.68428 -0.096866 -1.22409 -3.27403 -0.0898504 -0.816283 -2.864 -0.0840041 -0.408253 -2.45419 -0.079327 -1.96433e-13 -2.0446 -0.0758192 0.408475 -1.63523 -0.0734807 0.817173 -1.22609 -0.0723114 1.22609 -0.817173 -0.0723114 1.63523 -0.408475 -0.0734807 2.0446 -1.68208e-13 -0.0758192 2.45419 0.408253 -0.079327 2.864 0.816283 -0.0840041 3.27403 1.22409 -0.0898504 3.68428 1.63168 -0.096866 4.09476 2.03904 -0.105051 4.50546 2.44618 -0.114405 4.91638 2.8531 -0.124928 5.32752 3.2598 -0.136621 5.73889 3.66627 -0.149483 6.15048 4.07252 -0.163514 6.56229 4.47855 -0.178714 6.97432 4.88436 -0.195084 -5.29977 -6.55375 -0.195458 -4.89289 -6.14314 -0.178716 -4.48589 -5.73266 -0.16317 -4.07875 -5.32232 -0.148819 -3.67147 -4.91211 -0.135665 -3.26406 -4.50203 -0.123706 -2.85652 -4.09209 -0.112944 -2.44885 -3.68228 -0.103377 -2.04104 -3.2726 -0.095006 -1.6331 -2.86306 -0.0878309 -1.22502 -2.45365 -0.0818517 -0.816817 -2.04438 -0.0770683 -0.408475 -1.63523 -0.0734807 -2.41085e-13 -1.22623 -0.071089 0.408609 -0.81735 -0.0698932 0.81735 -0.408609 -0.0698932 1.22623 -1.81605e-13 -0.071089 1.63523 0.408475 -0.0734807 2.04438 0.816817 -0.0770683 2.45365 1.22502 -0.0818517 2.86306 1.6331 -0.0878309 3.2726 2.04104 -0.095006 3.68228 2.44885 -0.103377 4.09209 2.85652 -0.112944 4.50203 3.26406 -0.123706 4.91211 3.67147 -0.135665 5.32232 4.07875 -0.148819 5.73266 4.48589 -0.16317 6.14314 4.89289 -0.178716 6.55375 5.29977 -0.195458 -5.71647 -6.13446 -0.195644 -5.30844 -5.72519 -0.178716 -4.90037 -5.31596 -0.162997 -4.49225 -4.90677 -0.148488 -4.08408 -4.49763 -0.135187 -3.67588 -4.08853 -0.123096 -3.26762 -3.67948 -0.112213 -2.85933 -3.27047 -0.10254 -2.45098 -2.8615 -0.0940761 -2.0426 -2.45259 -0.0868212 -1.63417 -2.04371 -0.0807755 -1.22569 -1.63488 -0.0759389 -0.817173 -1.22609 -0.0723114 -0.408609 -0.81735 -0.0698932 -2.88038e-13 -0.408653 -0.068684 0.408653 -1.99017e-13 -0.068684 0.81735 0.408609 -0.0698932 1.22609 0.817173 -0.0723114 1.63488 1.22569 -0.0759389 2.04371 1.63417 -0.0807755 2.45259 2.0426 -0.0868212 2.8615 2.45098 -0.0940761 3.27047 2.85933 -0.10254 3.67948 3.26762 -0.112213 4.08853 3.67588 -0.123096 4.49763 4.08408 -0.135187 4.90677 4.49225 -0.148488 5.31596 4.90037 -0.162997 5.72519 5.30844 -0.178716 6.13446 5.71647 -0.195644 -6.13446 -5.71647 -0.195644 -5.72519 -5.30844 -0.178716 -5.31596 -4.90037 -0.162997 -4.90677 -4.49225 -0.148488 -4.49763 -4.08408 -0.135187 -4.08853 -3.67588 -0.123096 -3.67948 -3.26762 -0.112213 -3.27047 -2.85933 -0.10254 -2.8615 -2.45098 -0.0940761 -2.45259 -2.0426 -0.0868212 -2.04371 -1.63417 -0.0807755 -1.63488 -1.22569 -0.0759389 -1.22609 -0.817173 -0.0723114 -0.81735 -0.408609 -0.0698932 -0.408653 -1.9193e-13 -0.068684 -2.99188e-13 0.408653 -0.068684 0.408609 0.81735 -0.0698932 0.817173 1.22609 -0.0723114 1.22569 1.63488 -0.0759389 1.63417 2.04371 -0.0807755 2.0426 2.45259 -0.0868212 2.45098 2.8615 -0.0940761 2.85933 3.27047 -0.10254 3.26762 3.67948 -0.112213 3.67588 4.08853 -0.123096 4.08408 4.49763 -0.135187 4.49225 4.90677 -0.148488 4.90037 5.31596 -0.162997 5.30844 5.72519 -0.178716 5.71647 6.13446 -0.195644 -6.55375 -5.29977 -0.195458 -6.14314 -4.89289 -0.178716 -5.73266 -4.48589 -0.16317 -5.32232 -4.07875 -0.148819 -4.91211 -3.67147 -0.135665 -4.50203 -3.26406 -0.123706 -4.09209 -2.85652 -0.112944 -3.68228 -2.44885 -0.103377 -3.2726 -2.04104 -0.095006 -2.86306 -1.6331 -0.0878309 -2.45365 -1.22502 -0.0818517 -2.04438 -0.816817 -0.0770683 -1.63523 -0.408475 -0.0734807 -1.22623 -1.74416e-13 -0.071089 -0.81735 0.408609 -0.0698932 -0.408609 0.81735 -0.0698932 -2.88704e-13 1.22623 -0.071089 0.408475 1.63523 -0.0734807 0.816817 2.04438 -0.0770683 1.22502 2.45365 -0.0818517 1.6331 2.86306 -0.0878309 2.04104 3.2726 -0.095006 2.44885 3.68228 -0.103377 2.85652 4.09209 -0.112944 3.26406 4.50203 -0.123706 3.67147 4.91211 -0.135665 4.07875 5.32232 -0.148819 4.48589 5.73266 -0.16317 4.89289 6.14314 -0.178716 5.29977 6.55375 -0.195458 -6.97432 -4.88436 -0.195084 -6.56229 -4.47855 -0.178714 -6.15048 -4.07252 -0.163514 -5.73889 -3.66627 -0.149483 -5.32752 -3.2598 -0.136621 -4.91638 -2.8531 -0.124928 -4.50546 -2.44618 -0.114405 -4.09476 -2.03904 -0.105051 -3.68428 -1.63168 -0.096866 -3.27403 -1.22409 -0.0898504 -2.864 -0.816283 -0.0840041 -2.45419 -0.408253 -0.079327 -2.0446 -1.79579e-13 -0.0758192 -1.63523 0.408475 -0.0734807 -1.22609 0.817173 -0.0723114 -0.817173 1.22609 -0.0723114 -0.408475 1.63523 -0.0734807 -2.99059e-13 2.0446 -0.0758192 0.408253 2.45419 -0.079327 0.816283 2.864 -0.0840041 1.22409 3.27403 -0.0898504 1.63168 3.68428 -0.096866 2.03904 4.09476 -0.105051 2.44618 4.50546 -0.114405 2.8531 4.91638 -0.124928 3.2598 5.32752 -0.136621 3.66627 5.73889 -0.149483 4.07252 6.15048 -0.163514 4.47855 6.56229 -0.178714 4.88436 6.97432 -0.195084 -7.39618 -4.47023 -0.194524 -6.98264 -4.0654 -0.178713 -6.5694 -3.66026 -0.164031 -6.15648 -3.25481 -0.150478 -5.74387 -2.84905 -0.138055 -5.33157 -2.44298 -0.126761 -4.91958 -2.03659 -0.116597 -4.5079 -1.6299 -0.107562 -4.09654 -1.22289 -0.0996559 -3.68548 -0.815571 -0.0928796 -3.27474 -0.407941 -0.0872327 -2.86431 -2.06168e-13 -0.0827152 -2.45419 0.408253 -0.079327 -2.04438 0.816817 -0.0770683 -1.63488 1.22569 -0.0759389 -1.22569 1.63488 -0.0759389 -0.816817 2.04438 -0.0770683 -0.408253 2.45419 -0.079327 -3.30069e-13 2.86431 -0.0827152 0.407941 3.27474 -0.0872327 0.815571 3.68548 -0.0928796 1.22289 4.09654 -0.0996559 1.6299 4.5079 -0.107562 2.03659 4.91958 -0.116597 2.44298 5.33157 -0.126761 2.84905 5.74387 -0.138055 3.25481 6.15648 -0.150478 3.66026 6.5694 -0.164031 4.0654 6.98264 -0.178713 4.47023 7.39618 -0.194524 -7.81933 -4.0574 -0.193777 -7.40419 -3.65346 -0.17871 -6.98944 -3.24912 -0.164719 -6.5751 -2.84438 -0.151805 -6.16115 -2.43924 -0.139967 -5.7476 -2.0337 -0.129205 -5.33446 -1.62776 -0.119519 -4.92171 -1.22142 -0.110909 -4.50937 -0.814682 -0.103376 -4.09743 -0.407541 -0.0969185 -3.68588 -2.57017e-13 -0.0915375 -3.27474 0.407941 -0.0872327 -2.864 0.816283 -0.0840041 -2.45365 1.22502 -0.0818517 -2.04371 1.63417 -0.0807755 -1.63417 2.04371 -0.0807755 -1.22502 2.45365 -0.0818517 -0.816283 2.864 -0.0840041 -0.407941 3.27474 -0.0872327 -3.82139e-13 3.68588 -0.0915375 0.407541 4.09743 -0.0969185 0.814682 4.50937 -0.103376 1.22142 4.92171 -0.110909 1.62776 5.33446 -0.119519 2.0337 5.7476 -0.129205 2.43924 6.16115 -0.139967 2.84438 6.5751 -0.151805 3.24912 6.98944 -0.164719 3.65346 7.40419 -0.17871 4.0574 7.81933 -0.193777 -8.24377 -3.64585 -0.192843 -7.82694 -3.24272 -0.178707 -7.41059 -2.83909 -0.16558 -6.99473 -2.43497 -0.153464 -6.57936 -2.03037 -0.142357 -6.16449 -1.62527 -0.132259 -5.75009 -1.21969 -0.123172 -5.33619 -0.813615 -0.115094 -4.92278 -0.407052 -0.108026 -4.50986 -3.29625e-13 -0.101967 -4.09743 0.407541 -0.0969185 -3.68548 0.815571 -0.0928796 -3.27403 1.22409 -0.0898504 -2.86306 1.6331 -0.0878309 -2.45259 2.0426 -0.0868212 -2.0426 2.45259 -0.0868212 -1.6331 2.86306 -0.0878309 -1.22409 3.27403 -0.0898504 -0.815571 3.68548 -0.0928796 -0.407541 4.09743 -0.0969185 -4.55025e-13 4.50986 -0.101967 0.407052 4.92278 -0.108026 0.813615 5.33619 -0.115094 1.21969 5.75009 -0.123172 1.62527 6.16449 -0.132259 2.03037 6.57936 -0.142357 2.43497 6.99473 -0.153464 2.83909 7.41059 -0.16558 3.24272 7.82694 -0.178707 3.64585 8.24377 -0.192843 -8.66951 -3.2356 -0.191723 -8.25089 -2.83317 -0.178703 -7.83285 -2.43017 -0.166614 -7.41539 -2.02659 -0.155454 -6.99851 -1.62243 -0.145224 -6.58221 -1.21769 -0.135925 -6.16649 -0.812369 -0.127555 -5.75134 -0.406474 -0.120115 -5.33677 -4.25493e-13 -0.113605 -4.92278 0.407052 -0.108026 -4.50937 0.814682 -0.103376 -4.09654 1.22289 -0.0996559 -3.68428 1.63168 -0.096866 -3.2726 2.04104 -0.095006 -2.8615 2.45098 -0.0940761 -2.45098 2.8615 -0.0940761 -2.04104 3.2726 -0.095006 -1.63168 3.68428 -0.096866 -1.22289 4.09654 -0.0996559 -0.814682 4.50937 -0.103376 -0.407052 4.92278 -0.108026 -5.47895e-13 5.33677 -0.113605 0.406474 5.75134 -0.120115 0.812369 6.16649 -0.127555 1.21769 6.58221 -0.135925 1.62243 6.99851 -0.145224 2.02659 7.41539 -0.155454 2.43017 7.83285 -0.166614 2.83317 8.25089 -0.178703 3.2356 8.66951 -0.191723 -9.09653 -2.82664 -0.190415 -8.67604 -2.42483 -0.178699 -8.25623 -2.02236 -0.167819 -7.83708 -1.61922 -0.157776 -7.4186 -1.21542 -0.14857 -7.00078 -0.810946 -0.140201 -6.58363 -0.405807 -0.132669 -6.16715 -5.44342e-13 -0.125974 -5.75134 0.406474 -0.120115 -5.33619 0.813615 -0.115094 -4.92171 1.22142 -0.110909 -4.5079 1.6299 -0.107562 -4.09476 2.03904 -0.105051 -3.68228 2.44885 -0.103377 -3.27047 2.85933 -0.10254 -2.85933 3.27047 -0.10254 -2.44885 3.68228 -0.103377 -2.03904 4.09476 -0.105051 -1.6299 4.5079 -0.107562 -1.22142 4.92171 -0.110909 -0.813615 5.33619 -0.115094 -0.406474 5.75134 -0.120115 -6.62581e-13 6.16715 -0.125974 0.405807 6.58363 -0.132669 0.810946 7.00078 -0.140201 1.21542 7.4186 -0.14857 1.61922 7.83708 -0.157776 2.02236 8.25623 -0.167819 2.42483 8.67604 -0.178699 2.82664 9.09653 -0.190415 -9.52484 -2.41896 -0.188922 -9.1024 -2.01769 -0.178694 -8.68071 -1.61567 -0.169197 -8.25979 -1.21288 -0.16043 -7.83961 -0.809345 -0.152394 -7.4202 -0.40505 -0.145088 -7.00154 -6.87284e-13 -0.138513 -6.58363 0.405807 -0.132669 -6.16649 0.812369 -0.127555 -5.75009 1.21969 -0.123172 -5.33446 1.62776 -0.119519 -4.91958 2.03659 -0.116597 -4.50546 2.44618 -0.114405 -4.09209 2.85652 -0.112944 -3.67948 3.26762 -0.112213 -3.26762 3.67948 -0.112213 -2.85652 4.09209 -0.112944 -2.44618 4.50546 -0.114405 -2.03659 4.91958 -0.116597 -1.62776 5.33446 -0.119519 -1.21969 5.75009 -0.123172 -0.812369 6.16649 -0.127555 -0.405807 6.58363 -0.132669 -7.96696e-13 7.00154 -0.138513 0.40505 7.4202 -0.145088 0.809345 7.83961 -0.152394 1.21288 8.25979 -0.16043 1.61567 8.68071 -0.169197 2.01769 9.1024 -0.178694 2.41896 9.52484 -0.188922 -9.95444 -2.01258 -0.187241 -9.52995 -1.61175 -0.178688 -9.10631 -1.21008 -0.170746 -8.68352 -0.807566 -0.163415 -8.26157 -0.404205 -0.156695 -7.84046 -8.51819e-13 -0.150586 -7.4202 0.40505 -0.145088 -7.00078 0.810946 -0.140201 -6.58221 1.21769 -0.135925 -6.16449 1.62527 -0.132259 -5.7476 2.0337 -0.129205 -5.33157 2.44298 -0.126761 -4.91638 2.8531 -0.124928 -4.50203 3.26406 -0.123706 -4.08853 3.67588 -0.123096 -3.67588 4.08853 -0.123096 -3.26406 4.50203 -0.123706 -2.8531 4.91638 -0.124928 -2.44298 5.33157 -0.126761 -2.0337 5.7476 -0.129205 -1.62527 6.16449 -0.132259 -1.21769 6.58221 -0.135925 -0.810946 7.00078 -0.140201 -0.40505 7.4202 -0.145088 -9.51905e-13 7.84046 -0.150586 0.404205 8.26157 -0.156695 0.807566 8.68352 -0.163415 1.21008 9.10631 -0.170746 1.61175 9.52995 -0.178688 2.01258 9.95444 -0.187241 -10.3853 -1.60748 -0.185373 -9.95871 -1.20701 -0.178682 -9.53302 -0.805609 -0.172468 -9.10827 -0.403271 -0.166733 -8.68445 -1.03906e-12 -0.161475 -8.26157 0.404205 -0.156695 -7.83961 0.809345 -0.152394 -7.4186 1.21542 -0.14857 -6.99851 1.62243 -0.145224 -6.57936 2.03037 -0.142357 -6.16115 2.43924 -0.139967 -5.74387 2.84905 -0.138055 -5.32752 3.2598 -0.136621 -4.91211 3.67147 -0.135665 -4.49763 4.08408 -0.135187 -4.08408 4.49763 -0.135187 -3.67147 4.91211 -0.135665 -3.2598 5.32752 -0.136621 -2.84905 5.74387 -0.138055 -2.43924 6.16115 -0.139967 -2.03037 6.57936 -0.142357 -1.62243 6.99851 -0.145224 -1.21542 7.4186 -0.14857 -0.809345 7.83961 -0.152394 -0.404205 8.26157 -0.156695 -1.12754e-12 8.68445 -0.161475 0.403271 9.10827 -0.166733 0.805609 9.53302 -0.172468 1.20701 9.95871 -0.178682 1.60748 10.3853 -0.185373 -10.8175 -1.20368 -0.183319 -10.3887 -0.803474 -0.178675 -9.96084 -0.402249 -0.174363 -9.53404 -1.24975e-12 -0.170382 -9.10827 0.403271 -0.166733 -8.68352 0.807566 -0.163415 -8.25979 1.21288 -0.16043 -7.83708 1.61922 -0.157776 -7.41539 2.02659 -0.155454 -6.99473 2.43497 -0.153464 -6.5751 2.84438 -0.151805 -6.15648 3.25481 -0.150478 -5.73889 3.66627 -0.149483 -5.32232 4.07875 -0.148819 -4.90677 4.49225 -0.148488 -4.49225 4.90677 -0.148488 -4.07875 5.32232 -0.148819 -3.66627 5.73889 -0.149483 -3.25481 6.15648 -0.150478 -2.84438 6.5751 -0.151805 -2.43497 6.99473 -0.153464 -2.02659 7.41539 -0.155454 -1.61922 7.83708 -0.157776 -1.21288 8.25979 -0.16043 -0.807566 8.68352 -0.163415 -0.403271 9.10827 -0.166733 -1.32205e-12 9.53404 -0.170382 0.402249 9.96084 -0.174363 0.803474 10.3887 -0.178675 1.20368 10.8175 -0.183319 -11.251 -0.801162 -0.181078 -10.8198 -0.401137 -0.178667 -10.3898 -1.48302e-12 -0.176429 -9.96084 0.402249 -0.174363 -9.53302 0.805609 -0.172468 -9.10631 1.21008 -0.170746 -8.68071 1.61567 -0.169197 -8.25623 2.02236 -0.167819 -7.83285 2.43017 -0.166614 -7.41059 2.83909 -0.16558 -6.98944 3.24912 -0.164719 -6.5694 3.66026 -0.164031 -6.15048 4.07252 -0.163514 -5.73266 4.48589 -0.16317 -5.31596 4.90037 -0.162997 -4.90037 5.31596 -0.162997 -4.48589 5.73266 -0.16317 -4.07252 6.15048 -0.163514 -3.66026 6.5694 -0.164031 -3.24912 6.98944 -0.164719 -2.83909 7.41059 -0.16558 -2.43017 7.83285 -0.166614 -2.02236 8.25623 -0.167819 -1.61567 8.68071 -0.169197 -1.21008 9.10631 -0.170746 -0.805609 9.53302 -0.172468 -0.402249 9.96084 -0.174363 -1.53966e-12 10.3898 -0.176429 0.401137 10.8198 -0.178667 0.801162 11.251 -0.181078 -11.6857 -0.399936 -0.178651 -11.2522 -1.73937e-12 -0.178659 -10.8198 0.401137 -0.178667 -10.3887 0.803474 -0.178675 -9.95871 1.20701 -0.178682 -9.52995 1.61175 -0.178688 -9.1024 2.01769 -0.178694 -8.67604 2.42483 -0.178699 -8.25089 2.83317 -0.178703 -7.82694 3.24272 -0.178707 -7.40419 3.65346 -0.17871 -6.98264 4.0654 -0.178713 -6.56229 4.47855 -0.178714 -6.14314 4.89289 -0.178716 -5.72519 5.30844 -0.178716 -5.30844 5.72519 -0.178716 -4.89289 6.14314 -0.178716 -4.47855 6.56229 -0.178714 -4.0654 6.98264 -0.178713 -3.65346 7.40419 -0.17871 -3.24272 7.82694 -0.178707 -2.83317 8.25089 -0.178703 -2.42483 8.67604 -0.178699 -2.01769 9.1024 -0.178694 -1.61175 9.52995 -0.178688 -1.20701 9.95871 -0.178682 -0.803474 10.3887 -0.178675 -0.401137 10.8198 -0.178667 -1.77725e-12 11.2522 -0.178659 0.399936 11.6857 -0.178651 -12.1218 -2.01705e-12 -0.176036 -11.6857 0.399936 -0.178651 -11.251 0.801162 -0.181078 -10.8175 1.20368 -0.183319 -10.3853 1.60748 -0.185373 -9.95444 2.01258 -0.187241 -9.52484 2.41896 -0.188922 -9.09653 2.82664 -0.190415 -8.66951 3.2356 -0.191723 -8.24377 3.64585 -0.192843 -7.81933 4.0574 -0.193777 -7.39618 4.47023 -0.194524 -6.97432 4.88436 -0.195084 -6.55375 5.29977 -0.195458 -6.13446 5.71647 -0.195644 -5.71647 6.13446 -0.195644 -5.29977 6.55375 -0.195458 -4.88436 6.97432 -0.195084 -4.47023 7.39618 -0.194524 -4.0574 7.81933 -0.193777 -3.64585 8.24377 -0.192843 -3.2356 8.66951 -0.191723 -2.82664 9.09653 -0.190415 -2.41896 9.52484 -0.188922 -2.01258 9.95444 -0.187241 -1.60748 10.3853 -0.185373 -1.20368 10.8175 -0.183319 -0.801162 11.251 -0.181078 -0.399936 11.6857 -0.178651 -2.03393e-12 12.1218 -0.176036 -2.75335e-14 -10.6513 -14.0689 0.356861 -10.2736 -13.9356 0.714466 -9.89666 -13.8118 1.07282 -9.52044 -13.6975 1.43191 -9.14496 -13.5927 1.79175 -8.77022 -13.4975 2.15234 -8.39623 -13.4118 2.51367 -8.02298 -13.3356 2.87574 -7.65048 -13.2689 3.23856 -7.27873 -13.2118 3.60212 -6.90771 -13.1642 3.96643 -6.53745 -13.1261 4.33149 -6.16792 -13.0975 4.69728 -5.79915 -13.0784 5.06383 -5.43111 -13.0689 5.43111 -5.06383 -13.0689 5.79915 -4.69728 -13.0784 6.16792 -4.33149 -13.0975 6.53745 -3.96643 -13.1261 6.90771 -3.60212 -13.1642 7.27873 -3.23856 -13.2118 7.65048 -2.87574 -13.2689 8.02298 -2.51367 -13.3356 8.39623 -2.15234 -13.4118 8.77022 -1.79175 -13.4975 9.14496 -1.43191 -13.5927 9.52044 -1.07282 -13.6975 9.89666 -0.714466 -13.8118 10.2736 -0.356861 -13.9356 10.6513 1.02585e-13 -14.0689 -0.356861 -10.2736 -13.9356 -3.83344e-14 -9.89736 -13.8065 0.357554 -9.52177 -13.6867 0.715802 -9.14688 -13.5761 1.07474 -8.77269 -13.4747 1.43438 -8.39918 -13.3825 1.79471 -8.02637 -13.2996 2.15573 -7.65426 -13.2258 2.51744 -7.28283 -13.1613 2.87985 -6.91211 -13.106 3.24295 -6.54207 -13.0599 3.60675 -6.17273 -13.0231 3.97123 -5.80408 -12.9954 4.33642 -5.43612 -12.977 4.70229 -5.06886 -12.9678 5.06886 -4.70229 -12.9678 5.43612 -4.33642 -12.977 5.80408 -3.97123 -12.9954 6.17273 -3.60675 -13.0231 6.54207 -3.24295 -13.0599 6.91211 -2.87985 -13.106 7.28283 -2.51744 -13.1613 7.65426 -2.15573 -13.2258 8.02637 -1.79471 -13.2996 8.39918 -1.43438 -13.3825 8.77269 -1.07474 -13.4747 9.14688 -0.715802 -13.5761 9.52177 -0.357554 -13.6867 9.89736 8.10912e-14 -13.8065 10.2736 0.356861 -13.9356 -0.714466 -9.89666 -13.8118 -0.357554 -9.52177 -13.6867 -4.40403e-14 -9.14752 -13.5706 0.358196 -8.77392 -13.4634 0.717035 -8.40096 -13.3651 1.07652 -8.02863 -13.2758 1.43664 -7.65695 -13.1954 1.7974 -7.28592 -13.124 2.15881 -6.91552 -13.0614 2.52086 -6.54577 -13.0078 2.88355 -6.17666 -12.9632 3.24688 -5.80819 -12.9274 3.61086 -5.44036 -12.9006 3.97547 -5.07318 -12.8828 4.34073 -4.70663 -12.8738 4.70663 -4.34073 -12.8738 5.07318 -3.97547 -12.8828 5.44036 -3.61086 -12.9006 5.80819 -3.24688 -12.9274 6.17666 -2.88355 -12.9632 6.54577 -2.52086 -13.0078 6.91552 -2.15881 -13.0614 7.28592 -1.7974 -13.124 7.65695 -1.43664 -13.1954 8.02863 -1.07652 -13.2758 8.40096 -0.717035 -13.3651 8.77392 -0.358196 -13.4634 9.14752 6.10677e-14 -13.5706 9.52177 0.357554 -13.6867 9.89666 0.714466 -13.8118 -1.07282 -9.52044 -13.6975 -0.715802 -9.14688 -13.5761 -0.358196 -8.77392 -13.4634 -4.80063e-14 -8.40155 -13.3594 0.358787 -8.02976 -13.264 0.718165 -7.65857 -13.1773 1.07813 -7.28797 -13.0993 1.43869 -6.91796 -13.0299 1.79984 -6.54854 -12.9692 2.16158 -6.17971 -12.9172 2.52391 -5.81147 -12.8738 2.88684 -5.44383 -12.8392 3.25035 -5.07677 -12.8131 3.61445 -4.7103 -12.7958 3.97915 -4.34443 -12.7871 4.34443 -3.97915 -12.7871 4.7103 -3.61445 -12.7958 5.07677 -3.25035 -12.8131 5.44383 -2.88684 -12.8392 5.81147 -2.52391 -12.8738 6.17971 -2.16158 -12.9172 6.54854 -1.79984 -12.9692 6.91796 -1.43869 -13.0299 7.28797 -1.07813 -13.0993 7.65857 -0.718165 -13.1773 8.02976 -0.358787 -13.264 8.40155 4.9819e-14 -13.3594 8.77392 0.358196 -13.4634 9.14688 0.715802 -13.5761 9.52044 1.07282 -13.6975 -1.43191 -9.14496 -13.5927 -1.07474 -8.77269 -13.4747 -0.717035 -8.40096 -13.3651 -0.358787 -8.02976 -13.264 -5.05521e-14 -7.65911 -13.1713 0.359326 -7.289 -13.087 0.719192 -6.91943 -13.0111 1.0796 -6.55039 -12.9437 1.44054 -6.1819 -12.8847 1.80202 -5.81394 -12.8341 2.16405 -5.44652 -12.7919 2.52661 -5.07965 -12.7582 2.88971 -4.71331 -12.7329 3.25335 -4.34751 -12.7161 3.61753 -3.98225 -12.7077 3.98225 -3.61753 -12.7077 4.34751 -3.25335 -12.7161 4.71331 -2.88971 -12.7329 5.07965 -2.52661 -12.7582 5.44652 -2.16405 -12.7919 5.81394 -1.80202 -12.8341 6.1819 -1.44054 -12.8847 6.55039 -1.0796 -12.9437 6.91943 -0.719192 -13.0111 7.289 -0.359326 -13.087 7.65911 3.84409e-14 -13.1713 8.02976 0.358787 -13.264 8.40096 0.717035 -13.3651 8.77269 1.07474 -13.4747 9.14496 1.43191 -13.5927 -1.79175 -8.77022 -13.4975 -1.43438 -8.39918 -13.3825 -1.07652 -8.02863 -13.2758 -0.718165 -7.65857 -13.1773 -0.359326 -7.289 -13.087 -5.02391e-14 -6.91991 -13.0049 0.359814 -6.55132 -12.931 0.720117 -6.18321 -12.8653 1.08091 -5.81558 -12.8078 1.44218 -5.44845 -12.7586 1.80395 -5.0818 -12.7175 2.16621 -4.71565 -12.6847 2.52895 -4.34998 -12.66 2.89218 -3.9848 -12.6436 3.2559 -3.6201 -12.6354 3.6201 -3.2559 -12.6354 3.9848 -2.89218 -12.6436 4.34998 -2.52895 -12.66 4.71565 -2.16621 -12.6847 5.0818 -1.80395 -12.7175 5.44845 -1.44218 -12.7586 5.81558 -1.08091 -12.8078 6.18321 -0.720117 -12.8653 6.55132 -0.359814 -12.931 6.91991 3.45718e-14 -13.0049 7.289 0.359326 -13.087 7.65857 0.718165 -13.1773 8.02863 1.07652 -13.2758 8.39918 1.43438 -13.3825 8.77022 1.79175 -13.4975 -2.15234 -8.39623 -13.4118 -1.79471 -8.02637 -13.2996 -1.43664 -7.65695 -13.1954 -1.07813 -7.28797 -13.0993 -0.719192 -6.91943 -13.0111 -0.359814 -6.55132 -12.931 -4.72522e-14 -6.18364 -12.8589 0.360251 -5.81641 -12.7947 0.720938 -5.44961 -12.7387 1.08206 -5.08324 -12.6906 1.44362 -4.71732 -12.6505 1.80562 -4.35183 -12.6185 2.16805 -3.98677 -