<?xml version="1.0"?> 
<VTKFile type="StructuredGrid" version="0.1"> 
<StructuredGrid WholeExtent="0 29 0 29 0 29"> 
<Piece Extent="0 29 0 29 0 29"> 
<PointData>
<DataArray type="Float32" Name="efield" format="ascii" NumberOfComponents="3"> 
3.88205e-11 18.2448 17.7037 -0.698648 17.6852 18.0624 -1.39233 17.1206 18.3956 -2.08105 16.5511 18.7031 -2.7648 15.9766 18.985 -3.44358 15.3971 19.2413 -4.1174 14.8126 19.4719 -4.78626 14.2232 19.6769 -5.45015 13.6289 19.8563 -6.10907 13.0295 20.0101 -6.76303 12.4252 20.1382 -7.41202 11.8159 20.2407 -8.05605 11.2017 20.3176 -8.69511 10.5825 20.3689 -9.32921 9.95834 20.3945 -9.95834 9.32921 20.3945 -10.5825 8.69511 20.3689 -11.2017 8.05605 20.3176 -11.8159 7.41202 20.2407 -12.4252 6.76303 20.1382 -13.0295 6.10907 20.0101 -13.6289 5.45015 19.8563 -14.2232 4.78626 19.6769 -14.8126 4.1174 19.4719 -15.3971 3.44358 19.2413 -15.9766 2.7648 18.985 -16.5511 2.08105 18.7031 -17.1206 1.39233 18.3956 -17.6852 0.698648 18.0624 -18.2448 -1.39753e-10 17.7037 0.698648 17.6852 18.0624 4.01427e-11 17.116 18.4419 -0.694025 16.5422 18.7943 -1.38343 15.9637 19.1196 -2.06821 15.3806 19.4177 -2.74836 14.7929 19.6888 -3.42389 14.2006 19.9327 -4.0948 13.6037 20.1496 -4.76109 13.0021 20.3393 -5.42275 12.3959 20.502 -6.07979 11.7851 20.6375 -6.73221 11.1697 20.7459 -7.38001 10.5496 20.8272 -8.02318 9.92495 20.8814 -8.66173 9.29565 20.9085 -9.29565 8.66173 20.9085 -9.92495 8.02318 20.8814 -10.5496 7.38001 20.8272 -11.1697 6.73221 20.7459 -11.7851 6.07979 20.6375 -12.3959 5.42275 20.502 -13.0021 4.76109 20.3393 -13.6037 4.0948 20.1496 -14.2006 3.42389 19.9327 -14.7929 2.74836 19.6888 -15.3806 2.06821 19.4177 -15.9637 1.38343 19.1196 -16.5422 0.694025 18.7943 -17.116 -1.43e-10 18.4419 -17.6852 -0.698648 18.0624 1.39233 17.1206 18.3956 0.694025 16.5422 18.7943 4.1393e-11 15.9594 19.1645 -0.689744 15.3724 19.5063 -1.37521 14.7811 19.8195 -2.05639 14.1856 20.1043 -2.73329 13.5857 20.3606 -3.40591 12.9816 20.5885 -4.07426 12.3732 20.7878 -4.73832 11.7605 20.9587 -5.3981 11.1435 21.1011 -6.0536 10.5222 21.215 -6.70482 9.8967 21.3004 -7.35175 9.26689 21.3574 -7.99441 8.63279 21.3859 -8.63279 7.99441 21.3859 -9.26689 7.35175 21.3574 -9.8967 6.70482 21.3004 -10.5222 6.0536 21.215 -11.1435 5.3981 21.1011 -11.7605 4.73832 20.9587 -12.3732 4.07426 20.7878 -12.9816 3.40591 20.5885 -13.5857 2.73329 20.3606 -14.1856 2.05639 20.1043 -14.7811 1.37521 19.8195 -15.3724 0.689744 19.5063 -15.9594 -1.46018e-10 19.1645 -16.5422 -0.694025 18.7943 -17.1206 -1.39233 18.3956 2.08105 16.5511 18.7031 1.38343 15.9637 19.1196 0.689744 15.3724 19.5063 4.25706e-11 14.7772 19.8632 -0.685806 14.178 20.1904 -1.36767 13.5749 20.4879 -2.0456 12.9679 20.7556 -2.7196 12.3569 20.9936 -3.38965 11.742 21.2018 -4.05576 11.1231 21.3803 -4.71794 10.5003 21.529 -5.37618 9.87359 21.648 -6.03048 9.24291 21.7372 -6.68084 8.6083 21.7967 -7.32727 7.96976 21.8265 -7.96976 7.32727 21.8265 -8.6083 6.68084 21.7967 -9.24291 6.03048 21.7372 -9.87359 5.37618 21.648 -10.5003 4.71794 21.529 -11.1231 4.05576 21.3803 -11.742 3.38965 21.2018 -12.3569 2.7196 20.9936 -12.9679 2.0456 20.7556 -13.5749 1.36767 20.4879 -14.178 0.685806 20.1904 -14.7772 -1.48819e-10 19.8632 -15.3724 -0.689744 19.5063 -15.9637 -1.38343 19.1196 -16.5511 -2.08105 18.7031 2.7648 15.9766 18.985 2.06821 15.3806 19.4177 1.37521 14.7811 19.8195 0.685806 14.178 20.1904 4.36711e-11 13.5713 20.5304 -0.68221 12.961 20.8395 -1.36082 12.3471 21.1177 -2.03584 11.7296 21.3649 -2.70727 11.1086 21.5813 -3.37509 10.4839 21.7668 -4.03933 9.85561 21.9213 -4.69996 9.22374 22.0449 -5.357 8.58827 22.1377 -6.01045 7.94921 22.1995 -6.6603 7.30655 22.2304 -7.30655 6.6603 22.2304 -7.94921 6.01045 22.1995 -8.58827 5.357 22.1377 -9.22374 4.69996 22.0449 -9.85561 4.03933 21.9213 -10.4839 3.37509 21.7668 -11.1086 2.70727 21.5813 -11.7296 2.03584 21.3649 -12.3471 1.36082 21.1177 -12.961 0.68221 20.8395 -13.5713 -1.514e-10 20.5304 -14.178 -0.685806 20.1904 -14.7811 -1.37521 19.8195 -15.3806 -2.06821 19.4177 -15.9766 -2.7648 18.985 3.44358 15.3971 19.2413 2.74836 14.7929 19.6888 2.05639 14.1856 20.1043 1.36767 13.5749 20.4879 0.68221 12.961 20.8395 4.46884e-11 12.3439 21.1591 -0.678957 11.7235 21.4468 -1.35466 11.0998 21.7025 -2.02711 10.4729 21.9263 -2.69631 9.84277 22.1181 -3.36225 9.20935 22.2779 -4.02494 8.57269 22.4058 -4.68438 7.93277 22.5017 -5.34057 7.2896 22.5656 -5.9935 6.64318 22.5976 -6.64318 5.9935 22.5976 -7.2896 5.34057 22.5656 -7.93277 4.68438 22.5017 -8.57269 4.02494 22.4058 -9.20935 3.36225 22.2779 -9.84277 2.69631 22.1181 -10.4729 2.02711 21.9263 -11.0998 1.35466 21.7025 -11.7235 0.678957 21.4468 -12.3439 -1.53765e-10 21.1591 -12.961 -0.68221 20.8395 -13.5749 -1.36767 20.4879 -14.1856 -2.05639 20.1043 -14.7929 -2.74836 19.6888 -15.3971 -3.44358 19.2413 4.1174 14.8126 19.4719 3.42389 14.2006 19.9327 2.73329 13.5857 20.3606 2.0456 12.9679 20.7556 1.36082 12.3471 21.1177 0.678957 11.7235 21.4468 4.56183e-11 11.0969 21.7431 -0.676046 10.4674 22.0064 -1.34918 9.83506 22.2368 -2.01941 9.19977 22.4343 -2.68672 8.56156 22.5989 -3.35112 7.92044 22.7305 -4.01262 7.27642 22.8293 -4.6712 6.62948 22.8951 -5.32687 5.97963 22.928 -5.97963 5.32687 22.928 -6.62948 4.6712 22.8951 -7.27642 4.01262 22.8293 -7.92044 3.35112 22.7305 -8.56156 2.68672 22.5989 -9.19977 2.01941 22.4343 -9.83506 1.34918 22.2368 -10.4674 0.676046 22.0064 -11.0969 -1.55916e-10 21.7431 -11.7235 -0.678957 21.4468 -12.3471 -1.36082 21.1177 -12.9679 -2.0456 20.7556 -13.5857 -2.73329 20.3606 -14.2006 -3.42389 19.9327 -14.8126 -4.1174 19.4719 4.78626 14.2232 19.6769 4.0948 13.6037 20.1496 3.40591 12.9816 20.5885 2.7196 12.3569 20.9936 2.03584 11.7296 21.3649 1.35466 11.0998 21.7025 0.676046 10.4674 22.0064 4.64597e-11 9.83249 22.2765 -0.673478 9.19497 22.5128 -1.34439 8.55488 22.7153 -2.01273 7.91222 22.8841 -2.6785 7.267 23.0192 -3.34171 6.6192 23.1205 -4.00234 5.96884 23.188 -4.66041 5.31591 23.2217 -5.31591 4.66041 23.2217 -5.96884 4.00234 23.188 -6.6192 3.34171 23.1205 -7.267 2.6785 23.0192 -7.91222 2.01273 22.8841 -8.55488 1.34439 22.7153 -9.19497 0.673478 22.5128 -9.83249 -1.57858e-10 22.2765 -10.4674 -0.676046 22.0064 -11.0998 -1.35466 21.7025 -11.7296 -2.03584 21.3649 -12.3569 -2.7196 20.9936 -12.9816 -3.40591 20.5885 -13.6037 -4.0948 20.1496 -14.2232 -4.78626 19.6769 5.45015 13.6289 19.8563 4.76109 13.0021 20.3393 4.07426 12.3732 20.7878 3.38965 11.742 21.2018 2.70727 11.1086 21.5813 2.02711 10.4729 21.9263 1.34918 9.83506 22.2368 0.673478 9.19497 22.5128 4.72057e-11 8.55266 22.7543 -0.671252 7.90812 22.9613 -1.34028 7.26135 23.1338 -2.00708 6.61236 23.2718 -2.67165 5.96114 23.3753 -3.334 5.30769 23.4443 -3.99412 4.65202 23.4788 -4.65202 3.99412 23.4788 -5.30769 3.334 23.4443 -5.96114 2.67165 23.3753 -6.61236 2.00708 23.2718 -7.26135 1.34028 23.1338 -7.90812 0.671252 22.9613 -8.55266 -1.59589e-10 22.7543 -9.19497 -0.673478 22.5128 -9.83506 -1.34918 22.2368 -10.4729 -2.02711 21.9263 -11.1086 -2.70727 21.5813 -11.742 -3.38965 21.2018 -12.3732 -4.07426 20.7878 -13.0021 -4.76109 20.3393 -13.6289 -5.45015 19.8563 6.10907 13.0295 20.0101 5.42275 12.3959 20.502 4.73832 11.7605 20.9587 4.05576 11.1231 21.3803 3.37509 10.4839 21.7668 2.69631 9.84277 22.1181 2.01941 9.19977 22.4343 1.34439 8.55488 22.7153 0.671252 7.90812 22.9613 4.78561e-11 7.25946 23.1721 -0.669369 6.60893 23.3477 -1.33685 5.95651 23.4883 -2.00246 5.30221 23.5937 -2.66617 4.64603 23.6639 -3.32801 3.98796 23.6991 -3.98796 3.32801 23.6991 -4.64603 2.66617 23.6639 -5.30221 2.00246 23.5937 -5.95651 1.33685 23.4883 -6.60893 0.669369 23.3477 -7.25946 -1.61114e-10 23.1721 -7.90812 -0.671252 22.9613 -8.55488 -1.34439 22.7153 -9.19977 -2.01941 22.4343 -9.84277 -2.69631 22.1181 -10.4839 -3.37509 21.7668 -11.1231 -4.05576 21.3803 -11.7605 -4.73832 20.9587 -12.3959 -5.42275 20.502 -13.0295 -6.10907 20.0101 6.76303 12.4252 20.1382 6.07979 11.7851 20.6375 5.3981 11.1435 21.1011 4.71794 10.5003 21.529 4.03933 9.85561 21.9213 3.36225 9.20935 22.2779 2.68672 8.56156 22.5989 2.01273 7.91222 22.8841 1.34028 7.26135 23.1338 0.669369 6.60893 23.3477 4.84032e-11 5.95497 23.5261 -0.667828 5.29947 23.6687 -1.33411 4.64243 23.7757 -1.99886 3.98385 23.847 -2.66206 3.32373 23.8827 -3.32373 2.66206 23.8827 -3.98385 1.99886 23.847 -4.64243 1.33411 23.7757 -5.29947 0.667828 23.6687 -5.95497 -1.62433e-10 23.5261 -6.60893 -0.669369 23.3477 -7.26135 -1.34028 23.1338 -7.91222 -2.01273 22.8841 -8.56156 -2.68672 22.5989 -9.20935 -3.36225 22.2779 -9.85561 -4.03933 21.9213 -10.5003 -4.71794 21.529 -11.1435 -5.3981 21.1011 -11.7851 -6.07979 20.6375 -12.4252 -6.76303 20.1382 7.41202 11.8159 20.2407 6.73221 11.1697 20.7459 6.0536 10.5222 21.215 5.37618 9.87359 21.648 4.69996 9.22374 22.0449 4.02494 8.57269 22.4058 3.35112 7.92044 22.7305 2.6785 7.267 23.0192 2.00708 6.61236 23.2718 1.33685 5.95651 23.4883 0.667828 5.29947 23.6687 4.88445e-11 4.64123 23.813 -0.666629 3.9818 23.9213 -1.33206 3.32116 23.9935 -1.99629 2.65932 24.0295 -2.65932 1.99629 24.0295 -3.32116 1.33206 23.9935 -3.9818 0.666629 23.9213 -4.64123 -1.6355e-10 23.813 -5.29947 -0.667828 23.6687 -5.95651 -1.33685 23.4883 -6.61236 -2.00708 23.2718 -7.267 -2.6785 23.0192 -7.92044 -3.35112 22.7305 -8.57269 -4.02494 22.4058 -9.22374 -4.69996 22.0449 -9.87359 -5.37618 21.648 -10.5222 -6.0536 21.215 -11.1697 -6.73221 20.7459 -11.8159 -7.41202 20.2407 8.05605 11.2017 20.3176 7.38001 10.5496 20.8272 6.70482 9.8967 21.3004 6.03048 9.24291 21.7372 5.357 8.58827 22.1377 4.68438 7.93277 22.5017 4.01262 7.27642 22.8293 3.34171 6.6192 23.1205 2.67165 5.96114 23.3753 2.00246 5.30221 23.5937 1.33411 4.64243 23.7757 0.666629 3.9818 23.9213 4.91769e-11 3.3203 24.0305 -0.665773 2.65796 24.1033 -1.33069 1.99475 24.1397 -1.99475 1.33069 24.1397 -2.65796 0.665773 24.1033 -3.3203 -1.64467e-10 24.0305 -3.9818 -0.666629 23.9213 -4.64243 -1.33411 23.7757 -5.30221 -2.00246 23.5937 -5.96114 -2.67165 23.3753 -6.6192 -3.34171 23.1205 -7.27642 -4.01262 22.8293 -7.93277 -4.68438 22.5017 -8.58827 -5.357 22.1377 -9.24291 -6.03048 21.7372 -9.8967 -6.70482 21.3004 -10.5496 -7.38001 20.8272 -11.2017 -8.05605 20.3176 8.69511 10.5825 20.3689 8.02318 9.92495 20.8814 7.35175 9.26689 21.3574 6.68084 8.6083 21.7967 6.01045 7.94921 22.1995 5.34057 7.2896 22.5656 4.6712 6.62948 22.8951 4.00234 5.96884 23.188 3.334 5.30769 23.4443 2.66617 4.64603 23.6639 1.99886 3.98385 23.847 1.33206 3.32116 23.9935 0.665773 2.65796 24.1033 4.93952e-11 1.99424 24.1765 -0.665259 1.33 24.2131 -1.33 0.665259 24.2131 -1.99424 -1.65189e-10 24.1765 -2.65796 -0.665773 24.1033 -3.32116 -1.33206 23.9935 -3.98385 -1.99886 23.847 -4.64603 -2.66617 23.6639 -5.30769 -3.334 23.4443 -5.96884 -4.00234 23.188 -6.62948 -4.6712 22.8951 -7.2896 -5.34057 22.5656 -7.94921 -6.01045 22.1995 -8.6083 -6.68084 21.7967 -9.26689 -7.35175 21.3574 -9.92495 -8.02318 20.8814 -10.5825 -8.69511 20.3689 9.32921 9.95834 20.3945 8.66173 9.29565 20.9085 7.99441 8.63279 21.3859 7.32727 7.96976 21.8265 6.6603 7.30655 22.2304 5.9935 6.64318 22.5976 5.32687 5.97963 22.928 4.66041 5.31591 23.2217 3.99412 4.65202 23.4788 3.32801 3.98796 23.6991 2.66206 3.32373 23.8827 1.99629 2.65932 24.0295 1.33069 1.99475 24.1397 0.665259 1.33 24.2131 4.94961e-11 0.665088 24.2498 -0.665088 -1.65715e-10 24.2498 -1.33 -0.665259 24.2131 -1.99475 -1.33069 24.1397 -2.65932 -1.99629 24.0295 -3.32373 -2.66206 23.8827 -3.98796 -3.32801 23.6991 -4.65202 -3.99412 23.4788 -5.31591 -4.66041 23.2217 -5.97963 -5.32687 22.928 -6.64318 -5.9935 22.5976 -7.30655 -6.6603 22.2304 -7.96976 -7.32727 21.8265 -8.63279 -7.99441 21.3859 -9.29565 -8.66173 20.9085 -9.95834 -9.32921 20.3945 9.95834 9.32921 20.3945 9.29565 8.66173 20.9085 8.63279 7.99441 21.3859 7.96976 7.32727 21.8265 7.30655 6.6603 22.2304 6.64318 5.9935 22.5976 5.97963 5.32687 22.928 5.31591 4.66041 23.2217 4.65202 3.99412 23.4788 3.98796 3.32801 23.6991 3.32373 2.66206 23.8827 2.65932 1.99629 24.0295 1.99475 1.33069 24.1397 1.33 0.665259 24.2131 0.665088 -1.65721e-10 24.2498 4.93302e-11 -0.665088 24.2498 -0.665259 -1.33 24.2131 -1.33069 -1.99475 24.1397 -1.99629 -2.65932 24.0295 -2.66206 -3.32373 23.8827 -3.32801 -3.98796 23.6991 -3.99412 -4.65202 23.4788 -4.66041 -5.31591 23.2217 -5.32687 -5.97963 22.928 -5.9935 -6.64318 22.5976 -6.6603 -7.30655 22.2304 -7.32727 -7.96976 21.8265 -7.99441 -8.63279 21.3859 -8.66173 -9.29565 20.9085 -9.32921 -9.95834 20.3945 10.5825 8.69511 20.3689 9.92495 8.02318 20.8814 9.26689 7.35175 21.3574 8.6083 6.68084 21.7967 7.94921 6.01045 22.1995 7.2896 5.34057 22.5656 6.62948 4.6712 22.8951 5.96884 4.00234 23.188 5.30769 3.334 23.4443 4.64603 2.66617 23.6639 3.98385 1.99886 23.847 3.32116 1.33206 23.9935 2.65796 0.665773 24.1033 1.99424 -1.65139e-10 24.1765 1.33 -0.665259 24.2131 0.665259 -1.33 24.2131 4.8966e-11 -1.99424 24.1765 -0.665773 -2.65796 24.1033 -1.33206 -3.32116 23.9935 -1.99886 -3.98385 23.847 -2.66617 -4.64603 23.6639 -3.334 -5.30769 23.4443 -4.00234 -5.96884 23.188 -4.6712 -6.62948 22.8951 -5.34057 -7.2896 22.5656 -6.01045 -7.94921 22.1995 -6.68084 -8.6083 21.7967 -7.35175 -9.26689 21.3574 -8.02318 -9.92495 20.8814 -8.69511 -10.5825 20.3689 11.2017 8.05605 20.3176 10.5496 7.38001 20.8272 9.8967 6.70482 21.3004 9.24291 6.03048 21.7372 8.58827 5.357 22.1377 7.93277 4.68438 22.5017 7.27642 4.01262 22.8293 6.6192 3.34171 23.1205 5.96114 2.67165 23.3753 5.30221 2.00246 23.5937 4.64243 1.33411 23.7757 3.9818 0.666629 23.9213 3.3203 -1.64276e-10 24.0305 2.65796 -0.665773 24.1033 1.99475 -1.33069 24.1397 1.33069 -1.99475 24.1397 0.665773 -2.65796 24.1033 4.85754e-11 -3.3203 24.0305 -0.666629 -3.9818 23.9213 -1.33411 -4.64243 23.7757 -2.00246 -5.30221 23.5937 -2.67165 -5.96114 23.3753 -3.34171 -6.6192 23.1205 -4.01262 -7.27642 22.8293 -4.68438 -7.93277 22.5017 -5.357 -8.58827 22.1377 -6.03048 -9.24291 21.7372 -6.70482 -9.8967 21.3004 -7.38001 -10.5496 20.8272 -8.05605 -11.2017 20.3176 11.8159 7.41202 20.2407 11.1697 6.73221 20.7459 10.5222 6.0536 21.215 9.87359 5.37618 21.648 9.22374 4.69996 22.0449 8.57269 4.02494 22.4058 7.92044 3.35112 22.7305 7.267 2.6785 23.0192 6.61236 2.00708 23.2718 5.95651 1.33685 23.4883 5.29947 0.667828 23.6687 4.64123 -1.63134e-10 23.813 3.9818 -0.666629 23.9213 3.32116 -1.33206 23.9935 2.65932 -1.99629 24.0295 1.99629 -2.65932 24.0295 1.33206 -3.32116 23.9935 0.666629 -3.9818 23.9213 4.8162e-11 -4.64123 23.813 -0.667828 -5.29947 23.6687 -1.33685 -5.95651 23.4883 -2.00708 -6.61236 23.2718 -2.6785 -7.267 23.0192 -3.35112 -7.92044 22.7305 -4.02494 -8.57269 22.4058 -4.69996 -9.22374 22.0449 -5.37618 -9.87359 21.648 -6.0536 -10.5222 21.215 -6.73221 -11.1697 20.7459 -7.41202 -11.8159 20.2407 12.4252 6.76303 20.1382 11.7851 6.07979 20.6375 11.1435 5.3981 21.1011 10.5003 4.71794 21.529 9.85561 4.03933 21.9213 9.20935 3.36225 22.2779 8.56156 2.68672 22.5989 7.91222 2.01273 22.8841 7.26135 1.34028 23.1338 6.60893 0.669369 23.3477 5.95497 -1.61712e-10 23.5261 5.29947 -0.667828 23.6687 4.64243 -1.33411 23.7757 3.98385 -1.99886 23.847 3.32373 -2.66206 23.8827 2.66206 -3.32373 23.8827 1.99886 -3.98385 23.847 1.33411 -4.64243 23.7757 0.667828 -5.29947 23.6687 4.77283e-11 -5.95497 23.5261 -0.669369 -6.60893 23.3477 -1.34028 -7.26135 23.1338 -2.01273 -7.91222 22.8841 -2.68672 -8.56156 22.5989 -3.36225 -9.20935 22.2779 -4.03933 -9.85561 21.9213 -4.71794 -10.5003 21.529 -5.3981 -11.1435 21.1011 -6.07979 -11.7851 20.6375 -6.76303 -12.4252 20.1382 13.0295 6.10907 20.0101 12.3959 5.42275 20.502 11.7605 4.73832 20.9587 11.1231 4.05576 21.3803 10.4839 3.37509 21.7668 9.84277 2.69631 22.1181 9.19977 2.01941 22.4343 8.55488 1.34439 22.7153 7.90812 0.671252 22.9613 7.25946 -1.60011e-10 23.1721 6.60893 -0.669369 23.3477 5.95651 -1.33685 23.4883 5.30221 -2.00246 23.5937 4.64603 -2.66617 23.6639 3.98796 -3.32801 23.6991 3.32801 -3.98796 23.6991 2.66617 -4.64603 23.6639 2.00246 -5.30221 23.5937 1.33685 -5.95651 23.4883 0.669369 -6.60893 23.3477 4.72808e-11 -7.25946 23.1721 -0.671252 -7.90812 22.9613 -1.34439 -8.55488 22.7153 -2.01941 -9.19977 22.4343 -2.69631 -9.84277 22.1181 -3.37509 -10.4839 21.7668 -4.05576 -11.1231 21.3803 -4.73832 -11.7605 20.9587 -5.42275 -12.3959 20.502 -6.10907 -13.0295 20.0101 13.6289 5.45015 19.8563 13.0021 4.76109 20.3393 12.3732 4.07426 20.7878 11.742 3.38965 21.2018 11.1086 2.70727 21.5813 10.4729 2.02711 21.9263 9.83506 1.34918 22.2368 9.19497 0.673478 22.5128 8.55266 -1.58033e-10 22.7543 7.90812 -0.671252 22.9613 7.26135 -1.34028 23.1338 6.61236 -2.00708 23.2718 5.96114 -2.67165 23.3753 5.30769 -3.334 23.4443 4.65202 -3.99412 23.4788 3.99412 -4.65202 23.4788 3.334 -5.30769 23.4443 2.67165 -5.96114 23.3753 2.00708 -6.61236 23.2718 1.34028 -7.26135 23.1338 0.671252 -7.90812 22.9613 4.68178e-11 -8.55266 22.7543 -0.673478 -9.19497 22.5128 -1.34918 -9.83506 22.2368 -2.02711 -10.4729 21.9263 -2.70727 -11.1086 21.5813 -3.38965 -11.742 21.2018 -4.07426 -12.3732 20.7878 -4.76109 -13.0021 20.3393 -5.45015 -13.6289 19.8563 14.2232 4.78626 19.6769 13.6037 4.0948 20.1496 12.9816 3.40591 20.5885 12.3569 2.7196 20.9936 11.7296 2.03584 21.3649 11.0998 1.35466 21.7025 10.4674 0.676046 22.0064 9.83249 -1.55777e-10 22.2765 9.19497 -0.673478 22.5128 8.55488 -1.34439 22.7153 7.91222 -2.01273 22.8841 7.267 -2.6785 23.0192 6.6192 -3.34171 23.1205 5.96884 -4.00234 23.188 5.31591 -4.66041 23.2217 4.66041 -5.31591 23.2217 4.00234 -5.96884 23.188 3.34171 -6.6192 23.1205 2.6785 -7.267 23.0192 2.01273 -7.91222 22.8841 1.34439 -8.55488 22.7153 0.673478 -9.19497 22.5128 4.63474e-11 -9.83249 22.2765 -0.676046 -10.4674 22.0064 -1.35466 -11.0998 21.7025 -2.03584 -11.7296 21.3649 -2.7196 -12.3569 20.9936 -3.40591 -12.9816 20.5885 -4.0948 -13.6037 20.1496 -4.78626 -14.2232 19.6769 14.8126 4.1174 19.4719 14.2006 3.42389 19.9327 13.5857 2.73329 20.3606 12.9679 2.0456 20.7556 12.3471 1.36082 21.1177 11.7235 0.678957 21.4468 11.0969 -1.53245e-10 21.7431 10.4674 -0.676046 22.0064 9.83506 -1.34918 22.2368 9.19977 -2.01941 22.4343 8.56156 -2.68672 22.5989 7.92044 -3.35112 22.7305 7.27642 -4.01262 22.8293 6.62948 -4.6712 22.8951 5.97963 -5.32687 22.928 5.32687 -5.97963 22.928 4.6712 -6.62948 22.8951 4.01262 -7.27642 22.8293 3.35112 -7.92044 22.7305 2.68672 -8.56156 22.5989 2.01941 -9.19977 22.4343 1.34918 -9.83506 22.2368 0.676046 -10.4674 22.0064 4.58711e-11 -11.0969 21.7431 -0.678957 -11.7235 21.4468 -1.36082 -12.3471 21.1177 -2.0456 -12.9679 20.7556 -2.73329 -13.5857 20.3606 -3.42389 -14.2006 19.9327 -4.1174 -14.8126 19.4719 15.3971 3.44358 19.2413 14.7929 2.74836 19.6888 14.1856 2.05639 20.1043 13.5749 1.36767 20.4879 12.961 0.68221 20.8395 12.3439 -1.50443e-10 21.1591 11.7235 -0.678957 21.4468 11.0998 -1.35466 21.7025 10.4729 -2.02711 21.9263 9.84277 -2.69631 22.1181 9.20935 -3.36225 22.2779 8.57269 -4.02494 22.4058 7.93277 -4.68438 22.5017 7.2896 -5.34057 22.5656 6.64318 -5.9935 22.5976 5.9935 -6.64318 22.5976 5.34057 -7.2896 22.5656 4.68438 -7.93277 22.5017 4.02494 -8.57269 22.4058 3.36225 -9.20935 22.2779 2.69631 -9.84277 22.1181 2.02711 -10.4729 21.9263 1.35466 -11.0998 21.7025 0.678957 -11.7235 21.4468 4.53935e-11 -12.3439 21.1591 -0.68221 -12.961 20.8395 -1.36767 -13.5749 20.4879 -2.05639 -14.1856 20.1043 -2.74836 -14.7929 19.6888 -3.44358 -15.3971 19.2413 15.9766 2.7648 18.985 15.3806 2.06821 19.4177 14.7811 1.37521 19.8195 14.178 0.685806 20.1904 13.5713 -1.47363e-10 20.5304 12.961 -0.68221 20.8395 12.3471 -1.36082 21.1177 11.7296 -2.03584 21.3649 11.1086 -2.70727 21.5813 10.4839 -3.37509 21.7668 9.85561 -4.03933 21.9213 9.22374 -4.69996 22.0449 8.58827 -5.357 22.1377 7.94921 -6.01045 22.1995 7.30655 -6.6603 22.2304 6.6603 -7.30655 22.2304 6.01045 -7.94921 22.1995 5.357 -8.58827 22.1377 4.69996 -9.22374 22.0449 4.03933 -9.85561 21.9213 3.37509 -10.4839 21.7668 2.70727 -11.1086 21.5813 2.03584 -11.7296 21.3649 1.36082 -12.3471 21.1177 0.68221 -12.961 20.8395 4.4917e-11 -13.5713 20.5304 -0.685806 -14.178 20.1904 -1.37521 -14.7811 19.8195 -2.06821 -15.3806 19.4177 -2.7648 -15.9766 18.985 16.5511 2.08105 18.7031 15.9637 1.38343 19.1196 15.3724 0.689744 19.5063 14.7772 -1.44015e-10 19.8632 14.178 -0.685806 20.1904 13.5749 -1.36767 20.4879 12.9679 -2.0456 20.7556 12.3569 -2.7196 20.9936 11.742 -3.38965 21.2018 11.1231 -4.05576 21.3803 10.5003 -4.71794 21.529 9.87359 -5.37618 21.648 9.24291 -6.03048 21.7372 8.6083 -6.68084 21.7967 7.96976 -7.32727 21.8265 7.32727 -7.96976 21.8265 6.68084 -8.6083 21.7967 6.03048 -9.24291 21.7372 5.37618 -9.87359 21.648 4.71794 -10.5003 21.529 4.05576 -11.1231 21.3803 3.38965 -11.742 21.2018 2.7196 -12.3569 20.9936 2.0456 -12.9679 20.7556 1.36767 -13.5749 20.4879 0.685806 -14.178 20.1904 4.44444e-11 -14.7772 19.8632 -0.689744 -15.3724 19.5063 -1.38343 -15.9637 19.1196 -2.08105 -16.5511 18.7031 17.1206 1.39233 18.3956 16.5422 0.694025 18.7943 15.9594 -1.40392e-10 19.1645 15.3724 -0.689744 19.5063 14.7811 -1.37521 19.8195 14.1856 -2.05639 20.1043 13.5857 -2.73329 20.3606 12.9816 -3.40591 20.5885 12.3732 -4.07426 20.7878 11.7605 -4.73832 20.9587 11.1435 -5.3981 21.1011 10.5222 -6.0536 21.215 9.8967 -6.70482 21.3004 9.26689 -7.35175 21.3574 8.63279 -7.99441 21.3859 7.99441 -8.63279 21.3859 7.35175 -9.26689 21.3574 6.70482 -9.8967 21.3004 6.0536 -10.5222 21.215 5.3981 -11.1435 21.1011 4.73832 -11.7605 20.9587 4.07426 -12.3732 20.7878 3.40591 -12.9816 20.5885 2.73329 -13.5857 20.3606 2.05639 -14.1856 20.1043 1.37521 -14.7811 19.8195 0.689744 -15.3724 19.5063 4.39817e-11 -15.9594 19.1645 -0.694025 -16.5422 18.7943 -1.39233 -17.1206 18.3956 17.6852 0.698648 18.0624 17.116 -1.365e-10 18.4419 16.5422 -0.694025 18.7943 15.9637 -1.38343 19.1196 15.3806 -2.06821 19.4177 14.7929 -2.74836 19.6888 14.2006 -3.42389 19.9327 13.6037 -4.0948 20.1496 13.0021 -4.76109 20.3393 12.3959 -5.42275 20.502 11.7851 -6.07979 20.6375 11.1697 -6.73221 20.7459 10.5496 -7.38001 20.8272 9.92495 -8.02318 20.8814 9.29565 -8.66173 20.9085 8.66173 -9.29565 20.9085 8.02318 -9.92495 20.8814 7.38001 -10.5496 20.8272 6.73221 -11.1697 20.7459 6.07979 -11.7851 20.6375 5.42275 -12.3959 20.502 4.76109 -13.0021 20.3393 4.0948 -13.6037 20.1496 3.42389 -14.2006 19.9327 2.74836 -14.7929 19.6888 2.06821 -15.3806 19.4177 1.38343 -15.9637 19.1196 0.694025 -16.5422 18.7943 4.35314e-11 -17.116 18.4419 -0.698648 -17.6852 18.0624 18.2448 -1.32344e-10 17.7037 17.6852 -0.698648 18.0624 17.1206 -1.39233 18.3956 16.5511 -2.08105 18.7031 15.9766 -2.7648 18.985 15.3971 -3.44358 19.2413 14.8126 -4.1174 19.4719 14.2232 -4.78626 19.6769 13.6289 -5.45015 19.8563 13.0295 -6.10907 20.0101 12.4252 -6.76303 20.1382 11.8159 -7.41202 20.2407 11.2017 -8.05605 20.3176 10.5825 -8.69511 20.3689 9.95834 -9.32921 20.3945 9.32921 -9.95834 20.3945 8.69511 -10.5825 20.3689 8.05605 -11.2017 20.3176 7.41202 -11.8159 20.2407 6.76303 -12.4252 20.1382 6.10907 -13.0295 20.0101 5.45015 -13.6289 19.8563 4.78626 -14.2232 19.6769 4.1174 -14.8126 19.4719 3.44358 -15.3971 19.2413 2.7648 -15.9766 18.985 2.08105 -16.5511 18.7031 1.39233 -17.1206 18.3956 0.698648 -17.6852 18.0624 4.30944e-11 -18.2448 17.7037 4.61631e-11 17.9997 27.2929 -0.725403 17.4838 27.7938 -1.44333 16.9603 28.2589 -2.15377 16.4294 28.6882 -2.85673 15.891 29.0817 -3.55221 15.3451 29.4395 -4.24022 14.7918 29.7615 -4.92074 14.2309 30.0477 -5.59378 13.6626 30.2981 -6.25934 13.0868 30.5128 -6.91742 12.5035 30.6917 -7.56802 11.9128 30.8348 -8.21114 11.3145 30.9421 -8.84678 10.7088 31.0137 -9.47494 10.0956 31.0494 -10.0956 9.47494 31.0494 -10.7088 8.84678 31.0137 -11.3145 8.21114 30.9421 -11.9128 7.56802 30.8348 -12.5035 6.91742 30.6917 -13.0868 6.25934 30.5128 -13.6626 5.59378 30.2981 -14.2309 4.92074 30.0477 -14.7918 4.24022 29.7615 -15.3451 3.55221 29.4395 -15.891 2.85673 29.0817 -16.4294 2.15377 28.6882 -16.9603 1.44333 28.2589 -17.4838 0.725403 27.7938 -17.9997 -1.52649e-10 27.2929 0.725403 17.4838 27.7938 4.78756e-11 16.9534 28.302 -0.718439 16.416 28.774 -1.42991 15.8717 29.2096 -2.13442 15.3204 29.609 -2.83197 14.7621 29.972 -3.52255 14.1969 30.2988 -4.20617 13.6247 30.5892 -4.88282 13.0455 30.8433 -5.55251 12.4594 31.0611 -6.21523 11.8664 31.2427 -6.87099 11.2663 31.3879 -7.51979 10.6593 31.4968 -8.16162 10.0453 31.5694 -8.79649 9.42439 31.6057 -9.42439 8.79649 31.6057 -10.0453 8.16162 31.5694 -10.6593 7.51979 31.4968 -11.2663 6.87099 31.3879 -11.8664 6.21523 31.2427 -12.4594 5.55251 31.0611 -13.0455 4.88282 30.8433 -13.6247 4.20617 30.5892 -14.1969 3.52255 30.2988 -14.7621 2.83197 29.972 -15.3204 2.13442 29.609 -15.8717 1.42991 29.2096 -16.416 0.718439 28.774 -16.9534 -1.56433e-10 28.302 -17.4838 -0.725403 27.7938 1.44333 16.9603 28.2589 0.718439 16.416 28.774 4.94768e-11 15.8652 29.2523 -0.711991 15.308 29.6938 -1.41753 14.7443 30.0986 -2.11663 14.1742 30.4665 -2.80927 13.5976 30.7977 -3.49547 13.0146 31.092 -4.17522 12.4251 31.3496 -4.84852 11.8292 31.5703 -5.51537 11.2268 31.7543 -6.17577 10.618 31.9015 -6.82972 10.0028 32.0119 -7.47723 9.38105 32.0854 -8.11829 8.75289 32.1222 -8.75289 8.11829 32.1222 -9.38105 7.47723 32.0854 -10.0028 6.82972 32.0119 -10.618 6.17577 31.9015 -11.2268 5.51537 31.7543 -11.8292 4.84852 31.5703 -12.4251 4.17522 31.3496 -13.0146 3.49547 31.092 -13.5976 2.80927 30.7977 -14.1742 2.11663 30.4665 -14.7443 1.41753 30.0986 -15.308 0.711991 29.6938 -15.8652 -1.59956e-10 29.2523 -16.416 -0.718439 28.774 -16.9603 -1.44333 28.2589 2.15377 16.4294 28.6882 1.42991 15.8717 29.2096 0.711991 15.308 29.6938 5.09574e-11 14.7384 30.1408 -0.706058 14.1628 30.5505 -1.40618 13.5814 30.923 -2.10038 12.994 31.2582 -2.78864 12.4006 31.5561 -3.47096 11.8014 31.8169 -4.14736 11.1961 32.0403 -4.81782 10.585 32.2266 -5.48235 9.96794 32.3756 -6.14095 9.34494 32.4873 -6.79361 8.71601 32.5618 -7.44034 8.08114 32.599 -8.08114 7.44034 32.599 -8.71601 6.79361 32.5618 -9.34494 6.14095 32.4873 -9.96794 5.48235 32.3756 -10.585 4.81782 32.2266 -11.1961 4.14736 32.0403 -11.8014 3.47096 31.8169 -12.4006 2.78864 31.5561 -12.994 2.10038 31.2582 -13.5814 1.40618 30.923 -14.1628 0.706058 30.5505 -14.7384 -1.63235e-10 30.1408 -15.308 -0.711991 29.6938 -15.8717 -1.42991 29.2096 -16.4294 -2.15377 28.6882 2.85673 15.891 29.0817 2.13442 15.3204 29.609 1.41753 14.7443 30.0986 0.706058 14.1628 30.5505 5.23114e-11 13.576 30.9648 -0.700641 12.9836 31.3414 -1.39587 12.3859 31.6803 -2.08567 11.7828 31.9816 -2.77006 11.1742 32.2452 -3.44904 10.5603 32.4712 -4.1226 9.94086 32.6595 -4.79074 9.31605 32.8101 -5.45346 8.68583 32.9231 -6.11077 8.05019 32.9984 -6.76266 7.40913 33.0361 -7.40913 6.76266 33.0361 -8.05019 6.11077 32.9984 -8.68583 5.45346 32.9231 -9.31605 4.79074 32.8101 -9.94086 4.1226 32.6595 -10.5603 3.44904 32.4712 -11.1742 2.77006 32.2452 -11.7828 2.08567 31.9816 -12.3859 1.39587 31.6803 -12.9836 0.700641 31.3414 -13.576 -1.66263e-10 30.9648 -14.1628 -0.706058 30.5505 -14.7443 -1.41753 30.0986 -15.3204 -2.13442 29.609 -15.891 -2.85673 29.0817 3.55221 15.3451 29.4395 2.83197 14.7621 29.972 2.11663 14.1742 30.4665 1.40618 13.5814 30.923 0.700641 12.9836 31.3414 5.35352e-11 12.381 31.7217 -0.69574 11.7735 32.0641 -1.38658 11.1611 32.3684 -2.07252 10.5437 32.6346 -2.75356 9.92151 32.8629 -3.42969 9.29439 33.0531 -4.10093 8.66236 33.2052 -4.76726 8.02543 33.3193 -5.4287 7.3836 33.3954 -6.08523 6.73686 33.4334 -6.73686 6.08523 33.4334 -7.3836 5.4287 33.3954 -8.02543 4.76726 33.3193 -8.66236 4.10093 33.2052 -9.29439 3.42969 33.0531 -9.92151 2.75356 32.8629 -10.5437 2.07252 32.6346 -11.1611 1.38658 32.3684 -11.7735 0.69574 32.0641 -12.381 -1.69056e-10 31.7217 -12.9836 -0.700641 31.3414 -13.5814 -1.40618 30.923 -14.1742 -2.11663 30.4665 -14.7621 -2.83197 29.972 -15.3451 -3.55221 29.4395 4.24022 14.7918 29.7615 3.52255 14.1969 30.2988 2.80927 13.5976 30.7977 2.10038 12.994 31.2582 1.39587 12.3859 31.6803 0.69574 11.7735 32.0641 5.46245e-11 11.1567 32.4095 -0.691355 10.5355 32.7165 -1.37833 9.90991 32.9851 -2.06091 9.27994 33.2154 -2.73911 8.64559 33.4073 -3.41293 8.00686 33.5608 -4.08236 7.36374 33.6759 -4.7474 6.71623 33.7527 -5.40806 6.06434 33.791 -6.06434 5.40806 33.791 -6.71623 4.7474 33.7527 -7.36374 4.08236 33.6759 -8.00686 3.41293 33.5608 -8.64559 2.73911 33.4073 -9.27994 2.06091 33.2154 -9.90991 1.37833 32.9851 -10.5355 0.691355 32.7165 -11.1567 -1.71605e-10 32.4095 -11.7735 -0.69574 32.0641 -12.3859 -1.39587 31.6803 -12.994 -2.10038 31.2582 -13.5976 -2.80927 30.7977 -14.1969 -3.52255 30.2988 -14.7918 -4.24022 29.7615 4.92074 14.2309 30.0477 4.20617 13.6247 30.5892 3.49547 13.0146 31.092 2.78864 12.4006 31.5561 2.08567 11.7828 31.9816 1.38658 11.1611 32.3684 0.691355 10.5355 32.7165 5.55791e-11 9.90604 33.0259 -0.687486 9.27272 33.2967 -1.3711 8.63553 33.5287 -2.05085 7.99447 33.7221 -2.72673 7.34955 33.8768 -3.39874 6.70075 33.9929 -4.06688 6.04809 34.0702 -4.73115 5.39156 34.1089 -5.39156 4.73115 34.1089 -6.04809 4.06688 34.0702 -6.70075 3.39874 33.9929 -7.34955 2.72673 33.8768 -7.99447 2.05085 33.7221 -8.63553 1.3711 33.5287 -9.27272 0.687486 33.2967 -9.90604 -1.73924e-10 33.0259 -10.5355 -0.691355 32.7165 -11.1611 -1.38658 32.3684 -11.7828 -2.08567 31.9816 -12.4006 -2.78864 31.5561 -13.0146 -3.49547 31.092 -13.6247 -4.20617 30.5892 -14.2309 -4.92074 30.0477 5.59378 13.6626 30.2981 4.88282 13.0455 30.8433 4.17522 12.4251 31.3496 3.47096 11.8014 31.8169 2.77006 11.1742 32.2452 2.07252 10.5437 32.6346 1.37833 9.90991 32.9851 0.687486 9.27272 33.2967 5.63861e-11 8.63218 33.5693 -0.684133 7.98828 33.8029 -1.36491 7.34104 33.9976 -2.04234 6.69044 34.1534 -2.71641 6.03648 34.2702 -3.38713 5.37917 34.3481 -4.0545 4.71851 34.387 -4.71851 4.0545 34.387 -5.37917 3.38713 34.3481 -6.03648 2.71641 34.2702 -6.69044 2.04234 34.1534 -7.34104 1.36491 33.9976 -7.98828 0.684133 33.8029 -8.63218 -1.76012e-10 33.5693 -9.27272 -0.687486 33.2967 -9.90991 -1.37833 32.9851 -10.5437 -2.07252 32.6346 -11.1742 -2.77006 32.2452 -11.8014 -3.47096 31.8169 -12.4251 -4.17522 31.3496 -13.0455 -4.88282 30.8433 -13.6626 -5.59378 30.2981 6.25934 13.0868 30.5128 5.55251 12.4594 31.0611 4.84852 11.8292 31.5703 4.14736 11.1961 32.0403 3.44904 10.5603 32.4712 2.75356 9.92151 32.8629 2.06091 9.27994 33.2154 1.3711 8.63553 33.5287 0.684133 7.98828 33.8029 5.70433e-11 7.3382 34.0379 -0.681296 6.68528 34.2338 -1.35975 6.02952 34.3904 -2.03538 5.37092 34.5079 -2.70816 4.70949 34.5863 -3.37811 4.04521 34.6254 -4.04521 3.37811 34.6254 -4.70949 2.70816 34.5863 -5.37092 2.0353