<?xml version="1.0"?> 
<VTKFile type="StructuredGrid" version="0.1"> 
<StructuredGrid WholeExtent="0 14 0 14 0 29"> 
<Piece Extent="0 14 0 14 0 29"> 
<PointData>
<DataArray type="Float32" Name="efield" format="ascii" NumberOfComponents="3"> 
22.8736 2.01045 -5.65312 23.6634 0.898482 -6.81654 24.4532 0.0859903 -7.42664 25.2431 -0.528935 -7.49185 26.0329 -1.01084 -7.01243 26.8227 -1.4026 -5.98018 27.6126 -1.7338 -4.37791 28.4024 -2.02552 -2.17836 31.5072 -1.54676 -0.58578 34.6119 -1.10503 -0.398294 37.7167 -0.719714 -1.76162 40.8214 -0.405831 -4.86439 43.9262 -0.175238 -9.95008 47.031 -0.0374073 -17.3339 50.1357 1.76604e-14 -27.427 21.1767 3.29409 -5.69501 22.1215 2.74136 -6.98951 23.0355 2.34963 -7.69214 23.9256 2.06389 -7.8159 24.7966 1.84734 -7.36443 25.6515 1.67444 -6.33172 26.4928 1.52698 -4.70148 27.322 1.39161 -2.44588 30.5787 2.21986 -0.795536 33.8062 2.96549 -0.541167 37.0061 3.61676 -1.82833 40.1798 4.16468 -4.84859 43.3283 4.60229 -9.85346 46.4524 4.92419 -17.1745 49.5528 5.12619 -27.2529 19.6647 4.76244 -5.73046 20.6725 4.60607 -7.13567 21.6373 4.53075 -7.91623 22.5669 4.50523 -8.08913 23.4667 4.50783 -7.66094 24.3408 4.52313 -6.62751 25.1921 4.53989 -4.97326 26.0227 4.54982 -2.66978 29.3219 5.72317 -0.964662 32.5674 6.78482 -0.642924 35.7616 7.72837 -1.84804 38.9061 8.54917 -4.77175 42.0025 9.24387 -9.66972 45.0521 9.81018 -16.8845 48.0558 10.2466 -26.8802 18.2339 6.31209 -5.75947 19.2528 6.45011 -7.25508 20.2235 6.62013 -8.09913 21.1531 6.80406 -8.31196 22.0467 6.98911 -7.90259 22.9082 7.16605 -6.86846 23.7404 7.32816 -5.19456 24.5456 7.47048 -2.85193 27.8059 8.9748 -1.09897 30.9913 10.3501 -0.716174 34.1043 11.5936 -1.84405 37.1469 12.7037 -4.67294 40.1207 13.6796 -9.46011 43.0273 14.5212 -16.5552 45.8679 15.2289 -26.4392 16.8283 7.88701 -5.78202 17.8248 8.25066 -7.34784 18.7714 8.61502 -8.24109 19.674 8.96986 -8.48479 20.5368 9.3079 -8.08994 21.3631 9.62394 -7.05523 22.1555 9.91422 -5.36614 22.9161 10.176 -2.99323 26.0763 11.992 -1.20162 29.1432 13.6702 -0.768285 32.1192 15.2101 -1.83068 35.0065 16.6121 -4.57714 37.8069 17.877 -9.26503 40.5221 19.0062 -16.2482 43.1536 20.0014 -26.0199 15.4161 9.45524 -5.79814 16.3656 9.9956 -7.41403 17.2658 10.5163 -8.34232 18.1209 11.012 -8.60797 18.9344 11.4793 -8.22342 19.7087 11.9154 -7.18831 20.446 12.3188 -5.48844 21.148 12.6883 -3.09406 24.1613 14.7941 -1.27424 27.0654 16.7594 -0.803419 29.8628 18.5855 -1.8165 32.5559 20.2737 -4.49988 35.1467 21.8259 -9.11041 37.6371 23.2442 -16.0043 40.0287 24.5308 -25.6829 13.979 10.9985 -5.80781 14.8605 11.6792 -7.45372 15.6953 12.3269 -8.40299 16.4861 12.9397 -8.68176 17.2349 13.5166 -8.30338 17.9436 14.057 -7.26802 18.6137 14.5604 -5.56172 19.2463 15.0268 -3.15454 22.0754 17.3992 -1.31759 24.7824 19.6334 -0.823799 27.3699 21.7313 -1.80637 29.8402 23.6952 -4.45035 32.1955 25.5273 -9.01205 34.4379 27.2299 -15.8489 36.5696 28.8055 -25.4666 12.5074 12.5074 -5.81103 13.3002 13.3002 -7.46695 14.0513 14.0513 -8.4232 14.7616 14.7616 -8.70634 15.4318 15.4318 -8.33001 16.0626 16.0626 -7.29457 16.6546 16.6546 -5.58614 17.2086 17.2086 -3.1747 19.8227 19.8227 -1.33201 22.3051 22.3051 -0.830489 24.6579 24.6579 -1.80274 26.8836 26.8836 -4.43334 28.9844 28.9844 -8.97838 30.9628 30.9628 -15.7956 32.8211 32.8211 -25.3922 10.9985 13.979 -5.80781 11.6792 14.8605 -7.45372 12.3269 15.6953 -8.40299 12.9397 16.4861 -8.68176 13.5166 17.2349 -8.30338 14.057 17.9436 -7.26802 14.5604 18.6137 -5.56172 15.0268 19.2463 -3.15454 17.3992 22.0754 -1.31759 19.6334 24.7824 -0.823799 21.7313 27.3699 -1.80637 23.6952 29.8402 -4.45035 25.5273 32.1955 -9.01205 27.2299 34.4379 -15.8489 28.8055 36.5696 -25.4666 9.45524 15.4161 -5.79814 9.9956 16.3656 -7.41403 10.5163 17.2658 -8.34232 11.012 18.1209 -8.60797 11.4793 18.9344 -8.22342 11.9154 19.7087 -7.18831 12.3188 20.446 -5.48844 12.6883 21.148 -3.09406 14.7941 24.1613 -1.27424 16.7594 27.0654 -0.803419 18.5855 29.8628 -1.8165 20.2737 32.5559 -4.49988 21.8259 35.1467 -9.11041 23.2442 37.6371 -16.0043 24.5308 40.0287 -25.6829 7.88701 16.8283 -5.78202 8.25066 17.8248 -7.34784 8.61502 18.7714 -8.24109 8.96986 19.674 -8.48479 9.3079 20.5368 -8.08994 9.62394 21.3631 -7.05523 9.91422 22.1555 -5.36614 10.176 22.9161 -2.99323 11.992 26.0763 -1.20162 13.6702 29.1432 -0.768285 15.2101 32.1192 -1.83068 16.6121 35.0065 -4.57714 17.877 37.8069 -9.26503 19.0062 40.5221 -16.2482 20.0014 43.1536 -26.0199 6.31209 18.2339 -5.75947 6.45011 19.2528 -7.25508 6.62013 20.2235 -8.09913 6.80406 21.1531 -8.31196 6.98911 22.0467 -7.90259 7.16605 22.9082 -6.86846 7.32816 23.7404 -5.19456 7.47048 24.5456 -2.85193 8.9748 27.8059 -1.09897 10.3501 30.9913 -0.716174 11.5936 34.1043 -1.84405 12.7037 37.1469 -4.67294 13.6796 40.1207 -9.46011 14.5212 43.0273 -16.5552 15.2289 45.8679 -26.4392 4.76244 19.6647 -5.73046 4.60607 20.6725 -7.13567 4.53075 21.6373 -7.91623 4.50523 22.5669 -8.08913 4.50783 23.4667 -7.66094 4.52313 24.3408 -6.62751 4.53989 25.1921 -4.97326 4.54982 26.0227 -2.66978 5.72317 29.3219 -0.964662 6.78482 32.5674 -0.642924 7.72837 35.7616 -1.84804 8.54917 38.9061 -4.77175 9.24387 42.0025 -9.66972 9.81018 45.0521 -16.8845 10.2466 48.0558 -26.8802 3.29409 21.1767 -5.69501 2.74136 22.1215 -6.98951 2.34963 23.0355 -7.69214 2.06389 23.9256 -7.8159 1.84734 24.7966 -7.36443 1.67444 25.6515 -6.33172 1.52698 26.4928 -4.70148 1.39161 27.322 -2.44588 2.21986 30.5787 -0.795536 2.96549 33.8062 -0.541167 3.61676 37.0061 -1.82833 4.16468 40.1798 -4.84859 4.60229 43.3283 -9.85346 4.92419 46.4524 -17.1745 5.12619 49.5528 -27.2529 2.01045 22.8736 -5.65312 0.898482 23.6634 -6.81654 0.0859903 24.4532 -7.42664 -0.528935 25.2431 -7.49185 -1.01084 26.0329 -7.01243 -1.4026 26.8227 -5.98018 -1.7338 27.6126 -4.37791 -2.02552 28.4024 -2.17836 -1.54676 31.5072 -0.58578 -1.10503 34.6119 -0.398294 -0.719714 37.7167 -1.76162 -0.405831 40.8214 -4.86439 -0.175238 43.9262 -9.95008 -0.0374073 47.031 -17.3339 2.42299e-14 50.1357 -27.427 19.9913 -0.0766702 -20.6447 21.707 -0.537374 -19.6758 23.4107 -0.758897 -18.8206 25.0994 -0.844301 -18.0728 26.7707 -0.858348 -17.4272 28.4221 -0.843774 -16.8799 30.0515 -0.829897 -16.4281 31.6567 -0.837469 -16.07 31.828 -1.21089 -15.5574 31.9873 -1.35616 -15.268 32.1277 -1.32119 -15.2122 32.2416 -1.14274 -15.4041 32.3208 -0.849185 -15.863 32.3558 -0.462589 -16.6139 32.3356 8.68435e-15 -17.6894 18.2061 1.00495 -20.9981 20.1166 1.18201 -20.1341 21.9747 1.45027 -19.3426 23.7853 1.7567 -18.6172 25.5513 2.06614 -17.953 27.2747 2.35446 -17.3461 28.9565 2.60462 -16.7937 30.5974 2.80434 -16.2942 31.1011 2.60613 -15.71 31.5568 2.5502 -15.3743 31.9612 2.60137 -15.3009 32.3092 2.73218 -15.5086 32.5938 2.92092 -16.0226 32.8061 3.15041 -16.8764 32.9346 3.40705 -18.1132 16.6323 2.29802 -21.297 18.6335 2.93781 -20.531 20.5613 3.58418 -19.8004 22.4224 4.20916 -19.0988 24.2214 4.79371 -18.4212 25.9617 5.32457 -17.7639 27.6461 5.79235 -17.1241 29.2765 6.19038 -16.5003 29.9963 6.17995 -15.8361 30.6445 6.24524 -15.4371 31.2191 6.36053 -15.3199 31.7159 6.50526 -15.5079 32.1284 6.66281 -16.0324 32.4477 6.81953 -16.9347 32.6612 6.96413 -18.2692 15.1648 3.69738 -21.5417 17.194 4.68755 -20.8616 19.1368 5.63381 -20.1854 20.9997 6.52174 -19.5066 22.7878 7.34159 -18.8203 24.5051 8.08676 -18.1224 26.155 8.75283 -17.4104 27.7405 9.3369 -16.6826 28.5855 9.51321 -15.9418 29.3443 9.71386 -15.4762 30.0151 9.9201 -15.3054 30.5938 10.1164 -15.4566 31.0741 10.2899 -15.9663 31.4464 10.4292 -16.883 31.6977 10.5242 -18.2712 13.7455 5.1449 -21.7319 15.7599 6.4077 -21.1221 17.6789 7.59604 -20.4911 19.5084 8.7033 -19.8323 21.2532 9.72536 -19.1406 22.9175 10.6598 -18.412 24.5052 11.5055 -17.6437 26.0196 12.2622 -16.8339 26.9188 12.6152 -16.0274 27.7241 12.9531 -15.502 28.4333 13.2623 -15.2794 29.0424 13.5309 -15.3899 29.5445 13.7485 -15.8742 29.93 13.9051 -16.787 30.1856 13.9908 -18.2007 12.3407 6.60701 -21.8678 14.3075 8.08531 -21.31 16.1725 9.47117 -20.7128 17.9408 10.7626 -20.0694 19.6169 11.959 -19.3747 21.2049 13.0608 -18.6246 22.7089 14.0688 -17.8161 24.1322 14.9845 -16.9475 25.0293 15.4979 -16.0912 25.8309 15.9664 -15.5191 26.5342 16.38 -15.2544 27.1343 16.7295 -15.3297 27.6244 17.0059 -15.7888 27.9949 17.2001 -16.6907 28.2324 17.3017 -18.1142 10.9312 8.06433 -21.9494 12.8215 9.71406 -21.4234 14.6062 11.2617 -20.847 16.2897 12.7081 -20.2135 17.8757 14.055 -19.5173 19.3681 15.3045 -18.7545 20.7707 16.4588 -17.922 22.0869 17.5207 -17.018 22.9371 18.1735 -16.1307 23.6956 18.7593 -15.5291 24.3586 19.2709 -15.2373 24.9206 19.7009 -15.2891 25.3747 20.0413 -15.7303 25.7112 20.283 -16.6226 25.9175 20.4149 -18.0486 9.50677 9.50677 -21.9766 11.2921 11.2921 -21.4613 12.9716 12.9716 -20.892 14.5479 14.5479 -20.2618 16.0242 16.0242 -19.5652 17.4036 17.4036 -18.7982 18.6894 18.6894 -17.9577 19.8847 19.8847 -17.0419 20.6515 20.6515 -16.1441 21.3359 21.3359 -15.5324 21.9327 21.9327 -15.2313 22.4357 22.4357 -15.2749 22.8375 22.8375 -15.7097 23.1289 23.1289 -16.5983 23.2978 23.2978 -18.0245 8.06433 10.9312 -21.9494 9.71406 12.8215 -21.4234 11.2617 14.6062 -20.847 12.7081 16.2897 -20.2135 14.055 17.8757 -19.5173 15.3045 19.3681 -18.7545 16.4588 20.7707 -17.922 17.5207 22.0869 -17.018 18.1735 22.9371 -16.1307 18.7593 23.6956 -15.5291 19.2709 24.3586 -15.2373 19.7009 24.9206 -15.2891 20.0413 25.3747 -15.7303 20.283 25.7112 -16.6226 20.4149 25.9175 -18.0486 6.60701 12.3407 -21.8678 8.08531 14.3075 -21.31 9.47117 16.1725 -20.7128 10.7626 17.9408 -20.0694 11.959 19.6169 -19.3747 13.0608 21.2049 -18.6246 14.0688 22.7089 -17.8161 14.9845 24.1322 -16.9475 15.4979 25.0293 -16.0912 15.9664 25.8309 -15.5191 16.38 26.5342 -15.2544 16.7295 27.1343 -15.3297 17.0059 27.6244 -15.7888 17.2001 27.9949 -16.6907 17.3017 28.2324 -18.1142 5.1449 13.7455 -21.7319 6.4077 15.7599 -21.1221 7.59604 17.6789 -20.4911 8.7033 19.5084 -19.8323 9.72536 21.2532 -19.1406 10.6598 22.9175 -18.412 11.5055 24.5052 -17.6437 12.2622 26.0196 -16.8339 12.6152 26.9188 -16.0274 12.9531 27.7241 -15.502 13.2623 28.4333 -15.2794 13.5309 29.0424 -15.3899 13.7485 29.5445 -15.8742 13.9051 29.93 -16.787 13.9908 30.1856 -18.2007 3.69738 15.1648 -21.5417 4.68755 17.194 -20.8616 5.63381 19.1368 -20.1854 6.52174 20.9997 -19.5066 7.34159 22.7878 -18.8203 8.08676 24.5051 -18.1224 8.75283 26.155 -17.4104 9.3369 27.7405 -16.6826 9.51321 28.5855 -15.9418 9.71386 29.3443 -15.4762 9.9201 30.0151 -15.3054 10.1164 30.5938 -15.4566 10.2899 31.0741 -15.9663 10.4292 31.4464 -16.883 10.5242 31.6977 -18.2712 2.29802 16.6323 -21.297 2.93781 18.6335 -20.531 3.58418 20.5613 -19.8004 4.20916 22.4224 -19.0988 4.79371 24.2214 -18.4212 5.32457 25.9617 -17.7639 5.79235 27.6461 -17.1241 6.19038 29.2765 -16.5003 6.17995 29.9963 -15.8361 6.24524 30.6445 -15.4371 6.36053 31.2191 -15.3199 6.50526 31.7159 -15.5079 6.66281 32.1284 -16.0324 6.81953 32.4477 -16.9347 6.96413 32.6612 -18.2692 1.00495 18.2061 -20.9981 1.18201 20.1166 -20.1341 1.45027 21.9747 -19.3426 1.7567 23.7853 -18.6172 2.06614 25.5513 -17.953 2.35446 27.2747 -17.3461 2.60462 28.9565 -16.7937 2.80434 30.5974 -16.2942 2.60613 31.1011 -15.71 2.5502 31.5568 -15.3743 2.60137 31.9612 -15.3009 2.73218 32.3092 -15.5086 2.92092 32.5938 -16.0226 3.15041 32.8061 -16.8764 3.40705 32.9346 -18.1132 -0.0766702 19.9913 -20.6447 -0.537374 21.707 -19.6758 -0.758897 23.4107 -18.8206 -0.844301 25.0994 -18.0728 -0.858348 26.7707 -17.4272 -0.843774 28.4221 -16.8799 -0.829897 30.0515 -16.4281 -0.837469 31.6567 -16.07 -1.21089 31.828 -15.5574 -1.35616 31.9873 -15.268 -1.32119 32.1277 -15.2122 -1.14274 32.2416 -15.4041 -0.849185 32.3208 -15.863 -0.462589 32.3558 -16.6139 1.46374e-14 32.3356 -17.6894 19.9117 0.766814 -33.056 21.3028 -0.286271 -32.1036 22.7276 -0.786655 -31.1048 24.1893 -0.960403 -30.0394 25.6929 -0.944027 -28.886 27.2448 -0.826314 -27.6213 28.8534 -0.668906 -26.2198 30.5291 -0.5173 -24.653 29.9538 -1.06727 -22.3673 29.416 -1.33359 -20.3489 28.9008 -1.37482 -18.6043 28.3923 -1.23434 -17.1426 27.8733 -0.944206 -15.9772 27.3243 -0.527531 -15.1271 26.7227 -1.2918e-14 -14.6188 18.0657 1.65578 -33.7247 19.7639 1.35115 -32.8311 21.4241 1.37333 -31.8728 23.0642 1.58703 -30.826 24.6979 1.90534 -29.6672 26.3372 2.26898 -28.3725 27.9938 2.63537 -26.9168 29.6796 2.97237 -25.2738 29.4116 2.53668 -23.0294 29.1455 2.30303 -21.0332 28.8734 2.2241 -19.2918 28.5851 2.26355 -17.8143 28.2686 2.39336 -16.6134 27.9094 2.59211 -15.7067 27.4899 2.8438 -15.1188 16.421 2.74613 -34.2905 18.294 3.00899 -33.4657 20.0924 3.45389 -32.5568 21.8364 3.99736 -31.5369 23.5414 4.58334 -30.3803 25.2204 5.17245 -29.0625 26.8857 5.73581 -27.559 28.5495 6.25147 -25.8455 28.4964 5.9391 -23.6085 28.4189 5.76267 -21.5977 28.3128 5.68471 -19.8212 28.1713 5.6756 -18.2899 27.9853 5.71174 -17.0186 27.7427 5.77429 -16.0271 27.4285 5.84839 -15.3422 14.8948 3.95492 -34.7534 16.8536 4.66135 -33.9973 18.7194 5.45319 -33.1395 20.51 6.27817 -32.1498 22.2392 7.10028 -31.0008 23.9193 7.89387 -29.6668 25.5617 8.64013 -28.1239 27.1777 9.32495 -26.3495 27.266 9.13486 -24.1019 27.312 9.02716 -22.0585 27.3133 8.9728 -20.2293 27.2645 8.94814 -18.6283 27.1579 8.93371 -17.2735 26.9829 8.91332 -16.1888 26.7258 8.87342 -15.4053 13.439 5.23408 -35.1134 15.4175 6.29311 -34.4184 17.2955 7.37129 -33.607 19.0865 8.43615 -32.6464 20.8016 9.46516 -31.5072 22.4509 10.4424 -30.1628 24.0444 11.3566 -28.5896 25.5919 12.1998 -26.7662 25.7629 12.1238 -24.5012 25.8814 12.0871 -22.4203 25.9453 12.0677 -20.5362 25.9497 12.0471 -18.8658 25.8873 12.0093 -17.4308 25.7482 11.9405 -16.2592 25.5192 11.828 -15.3871 12.0248 6.55485 -35.3706 13.9694 7.89559 -34.7231 15.8137 9.20948 -33.9486 17.5661 10.4772 -33.0119 19.2343 11.6857 -31.8819 20.8259 12.8262 -30.5315 22.3486 13.8932 -28.937 23.8107 14.8834 -27.0781 24.017 14.908 -24.7959 24.1682 14.9379 -22.6822 24.2611 14.9568 -20.7518 24.2903 14.9504 -19.024 24.2485 14.9057 -17.5236 24.126 14.8105 -16.2825 23.91 14.6528 -15.3409 10.6353 7.90027 -35.5249 12.4987 9.46441 -34.9075 14.2684 10.9698 -34.1566 15.9476 12.4066 -33.2354 17.54 13.7685 -32.112 19.0501 15.0523 -30.7586 20.4833 16.2568 -29.1515 21.8456 17.3826 -27.2712 22.0489 17.4901 -24.977 22.2013 17.5768 -22.8413 22.298 17.6312 -20.8803 22.3323 17.6423 -19.1149 22.2963 17.5995 -17.5723 22.1801 17.4915 -16.2865 21.9715 17.3067 -15.3006 9.26134 9.26134 -35.5764 10.9983 10.9983 -34.9693 12.6551 12.6551 -34.2264 14.2288 14.2288 -33.3107 15.7187 15.7187 -32.1896 17.1258 17.1258 -30.8353 18.4526 18.4526 -29.2241 19.7025 19.7025 -27.3365 19.8711 19.8711 -25.038 20.0002 20.0002 -22.8947 20.0821 20.0821 -20.923 20.1086 20.1086 -19.1447 20.0704 20.0704 -17.5874 19.9572 19.9572 -16.2862 19.7572 19.7572 -15.2852 7.90027 10.6353 -35.5249 9.46441 12.4987 -34.9075 10.9698 14.2684 -34.1566 12.4066 15.9476 -33.2354 13.7685 17.54 -32.112 15.0523 19.0501 -30.7586 16.2568 20.4833 -29.1515 17.3826 21.8456 -27.2712 17.4901 22.0489 -24.977 17.5768 22.2013 -22.8413 17.6312 22.298 -20.8803 17.6423 22.3323 -19.1149 17.5995 22.2963 -17.5723 17.4915 22.1801 -16.2865 17.3067 21.9715 -15.3006 6.55485 12.0248 -35.3706 7.89559 13.9694 -34.7231 9.20948 15.8137 -33.9486 10.4772 17.5661 -33.0119 11.6857 19.2343 -31.8819 12.8262 20.8259 -30.5315 13.8932 22.3486 -28.937 14.8834 23.8107 -27.0781 14.908 24.017 -24.7959 14.9379 24.1682 -22.6822 14.9568 24.2611 -20.7518 14.9504 24.2903 -19.024 14.9057 24.2485 -17.5236 14.8105 24.126 -16.2825 14.6528 23.91 -15.3409 5.23408 13.439 -35.1134 6.29311 15.4175 -34.4184 7.37129 17.2955 -33.607 8.43615 19.0865 -32.6464 9.46516 20.8016 -31.5072 10.4424 22.4509 -30.1628 11.3566 24.0444 -28.5896 12.1998 25.5919 -26.7662 12.1238 25.7629 -24.5012 12.0871 25.8814 -22.4203 12.0677 25.9453 -20.5362 12.0471 25.9497 -18.8658 12.0093 25.8873 -17.4308 11.9405 25.7482 -16.2592 11.828 25.5192 -15.3871 3.95492 14.8948 -34.7534 4.66135 16.8536 -33.9973 5.45319 18.7194 -33.1395 6.27817 20.51 -32.1498 7.10028 22.2392 -31.0008 7.89387 23.9193 -29.6668 8.64013 25.5617 -28.1239 9.32495 27.1777 -26.3495 9.13486 27.266 -24.1019 9.02716 27.312 -22.0585 8.9728 27.3133 -20.2293 8.94814 27.2645 -18.6283 8.93371 27.1579 -17.2735 8.91332 26.9829 -16.1888 8.87342 26.7258 -15.4053 2.74613 16.421 -34.2905 3.00899 18.294 -33.4657 3.45389 20.0924 -32.5568 3.99736 21.8364 -31.5369 4.58334 23.5414 -30.3803 5.17245 25.2204 -29.0625 5.73581 26.8857 -27.559 6.25147 28.5495 -25.8455 5.9391 28.4964 -23.6085 5.76267 28.4189 -21.5977 5.68471 28.3128 -19.8212 5.6756 28.1713 -18.2899 5.71174 27.9853 -17.0186 5.77429 27.7427 -16.0271 5.84839 27.4285 -15.3422 1.65578 18.0657 -33.7247 1.35115 19.7639 -32.8311 1.37333 21.4241 -31.8728 1.58703 23.0642 -30.826 1.90534 24.6979 -29.6672 2.26898 26.3372 -28.3725 2.63537 27.9938 -26.9168 2.97237 29.6796 -25.2738 2.53668 29.4116 -23.0294 2.30303 29.1455 -21.0332 2.2241 28.8734 -19.2918 2.26355 28.5851 -17.8143 2.39336 28.2686 -16.6134 2.59211 27.9094 -15.7067 2.8438 27.4899 -15.1188 0.766814 19.9117 -33.056 -0.286271 21.3028 -32.1036 -0.786655 22.7276 -31.1048 -0.960403 24.1893 -30.0394 -0.944027 25.6929 -28.886 -0.826314 27.2448 -27.6213 -0.668906 28.8534 -26.2198 -0.5173 30.5291 -24.653 -1.06727 29.9538 -22.3673 -1.33359 29.416 -20.3489 -1.37482 28.9008 -18.6043 -1.23434 28.3923 -17.1426 -0.944206 27.8733 -15.9772 -0.527531 27.3243 -15.1271 -6.7493e-15 26.7227 -14.6188 19.5774 1.00914 -39.9894 20.8062 -0.16457 -38.5024 22.0971 -0.733548 -36.9523 23.4544 -0.946207 -35.3332 24.8828 -0.951443 -33.6388 26.3874 -0.84593 -31.862 27.9741 -0.696962 -29.995 29.6497 -0.554456 -28.0292 29.1835 -1.07394 -25.6658 28.8259 -1.3037 -23.2268 28.5836 -1.30909 -20.7006 28.4648 -1.14183 -18.0744 28.4789 -0.844391 -15.3339 28.6369 -0.45303 -12.4633 28.9518 -1.63681e-15 -9.44434 17.8036 1.88796 -40.7805 19.3424 1.45206 -39.3822 20.8655 1.38748 -37.9042 22.393 1.5432 -36.3402 23.939 1.82269 -34.6828 25.5147 2.16007 -32.9243 27.1295 2.50777 -31.0555 28.7925 2.82959 -29.0663 28.6208 2.43084 -26.6971 28.5185 2.24701 -24.2207 28.4994 2.22725 -21.6237 28.5773 2.33049 -18.8908 28.7667 2.52239 -16.0048 29.0831 2.77324 -12.9453 29.5441 3.05631 -9.68899 16.2166 2.95351 -41.4498 17.9345 3.08004 -40.1285 19.5964 3.42644 -38.713 21.2251 3.89824 -37.1963 22.8363 4.43205 -35.5707 24.4423 4.98299 -33.8275 26.0533 5.51784 -31.9565 27.6788 6.01101 -29.9461 27.7106 5.73986 -27.5653 27.7808 5.62335 -25.0481 27.9067 5.62387 -22.379 28.1053 5.71085 -19.5404 28.394 5.8587 -16.5113 28.7914 6.04539 -13.2672 29.318 6.25127 -9.77881 14.74 4.12954 -41.9975 16.5478 4.69723 -40.7404 18.2795 5.38269 -39.3768 19.9551 6.12605 -37.8996 21.5887 6.88562 -36.3004 23.1912 7.63118 -34.5698 24.7721 8.34006 -32.6967 26.3399 8.99487 -30.6682 26.5038 8.84895 -28.2739 26.6828 8.80903 -25.7177 26.8954 8.84927 -22.9823 27.16 8.94897 -20.0476 27.4951 9.09119 -16.8894 27.9209 9.26186 -13.4792 28.4595 9.44904 -9.78208 13.3294 5.37159 -42.4235 15.1604 6.29072 -41.217 16.9073 7.25704 -39.8945 18.5853 8.23286 -38.4484 20.2052 9.19124 -36.8701 21.7757 10.1124 -35.1493 23.3043 10.9815 -33.2744 24.7982 11.7875 -31.2315 25.0371 11.758 -28.8244 25.2759 11.7956 -26.2347 25.5322 11.8847 -23.4436 25.8238 12.0136 -20.4287 26.1693 12.1735 -17.1634 26.5887 12.358 -13.6154 27.1045 12.5628 -9.74531 11.9582 6.65297 -42.7278 13.7579 7.85317 -41.5578 15.4742 9.05112 -40.265 17.1164 10.2241 -38.8414 18.6915 11.3556 -37.2781 20.205 12.4334 -35.5645 21.6622 13.4488 -33.6882 23.0687 14.3955 -31.6348 23.337 14.4688 -29.2176 23.5975 14.5787 -26.6023 23.8656 14.7188 -23.7693 24.1572 14.8851 -20.6944 24.4893 15.0759 -17.3492 24.8806 15.2922 -13.6985 25.3524 15.5367 -9.69965 10.6105 7.95787 -42.9103 12.3308 9.38091 -41.7625 13.9755 10.7671 -40.4875 15.5478 12.1045 -39.0776 17.05 13.3842 -37.5234 18.4844 14.6 -35.8141 19.8535 15.7475 -33.937 21.1607 16.8246 -31.8773 21.4213 16.983 -29.4534 21.6739 17.1557 -26.8223 21.9305 17.3436 -23.9633 22.2037 17.5494 -20.8515 22.5077 17.7779 -17.4569 22.8585 18.0361 -13.7431 23.2747 18.3332 -9.66493 9.27793 9.27793 -42.9712 10.873 10.873 -41.8307 12.4076 12.4076 -40.5618 13.878 13.878 -39.1564 15.2814 15.2814 -37.6053 16.6162 16.6162 -35.8974 17.8818 17.8818 -34.02 19.079 19.079 -31.9582 19.3013 19.3013 -29.5321 19.523 19.523 -26.8956 19.7511 19.7511 -24.0277 19.994 19.994 -20.9034 20.2618 20.2618 -17.4923 20.5664 20.5664 -13.7572 20.9225 20.9225 -9.65219 7.95787 10.6105 -42.9103 9.38091 12.3308 -41.7625 10.7671 13.9755 -40.4875 12.1045 15.5478 -39.0776 13.3842 17.05 -37.5234 14.6 18.4844 -35.8141 15.7475 19.8535 -33.937 16.8246 21.1607 -31.8773 16.983 21.4213 -29.4534 17.1557 21.6739 -26.8223 17.3436 21.9305 -23.9633 17.5494 22.2037 -20.8515 17.7779 22.5077 -17.4569 18.0361 22.8585 -13.7431 18.3332 23.2747 -9.66493 6.65297 11.9582 -42.7278 7.85317 13.7579 -41.5578 9.05112 15.4742 -40.265 10.2241 17.1164 -38.8414 11.3556 18.6915 -37.2781 12.4334 20.205 -35.5645 13.4488 21.6622 -33.6882 14.3955 23.0687 -31.6348 14.4688 23.337 -29.2176 14.5787 23.5975 -26.6023 14.7188 23.8656 -23.7693 14.8851 24.1572 -20.6944 15.0759 24.4893 -17.3492 15.2922 24.8806 -13.6985 15.5367 25.3524 -9.69965 5.37159 13.3294 -42.4235 6.29072 15.1604 -41.217 7.25704 16.9073 -39.8945 8.23286 18.5853 -38.4484 9.19124 20.2052 -36.8701 10.1124 21.7757 -35.1493 10.9815 23.3043 -33.2744 11.7875 24.7982 -31.2315 11.758 25.0371 -28.8244 11.7956 25.2759 -26.2347 11.8847 25.5322 -23.4436 12.0136 25.8238 -20.4287 12.1735 26.1693 -17.1634 12.358 26.5887 -13.6154 12.5628 27.1045 -9.74531 4.12954 14.74 -41.9975 4.69723 16.5478 -40.7404 5.38269 18.2795 -39.3768 6.12605 19.9551 -37.8996 6.88562 21.5887 -36.3004 7.63118 23.1912 -34.5698 8.34006 24.7721 -32.6967 8.99487 26.3399 -30.6682 8.84895 26.5038 -28.2739 8.80903 26.6828 -25.7177 8.84927 26.8954 -22.9823 8.94897 27.16 -20.0476 9.09119 27.4951 -16.8894 9.26186 27.9209 -13.4792 9.44904 28.4595 -9.78208 2.95351 16.2166 -41.4498 3.08004 17.9345 -40.1285 3.42644 19.5964 -38.713 3.89824 21.2251 -37.1963 4.43205 22.8363 -35.5707 4.98299 24.4423 -33.8275 5.51784 26.0533 -31.9565 6.01101 27.6788 -29.9461 5.73986 27.7106 -27.5653 5.62335 27.7808 -25.0481 5.62387 27.9067 -22.379 5.71085 28.1053 -19.5404 5.8587 28.394 -16.5113 6.04539 28.7914 -13.2672 6.25127 29.318 -9.77881 1.88796 17.8036 -40.7805 1.45206 19.3424 -39.3822 1.38748 20.8655 -37.9042 1.5432 22.393 -36.3402 1.82269 23.939 -34.6828 2.16007 25.5147 -32.9243 2.50777 27.1295 -31.0555 2.82959 28.7925 -29.0663 2.43084 28.6208 -26.6971 2.24701 28.5185 -24.2207 2.22725 28.4994 -21.6237 2.33049 28.5773 -18.8908 2.52239 28.7667 -16.0048 2.77324 29.0831 -12.9453 3.05631 29.5441 -9.68899 1.00914 19.5774 -39.9894 -0.16457 20.8062 -38.5024 -0.733548 22.0971 -36.9523 -0.946207 23.4544 -35.3332 -0.951443 24.8828 -33.6388 -0.84593 26.3874 -31.862 -0.696962 27.9741 -29.995 -0.554456 29.6497 -28.0292 -1.07394 29.1835 -25.6658 -1.3037 28.8259 -23.2268 -1.30909 28.5836 -20.7006 -1.14183 28.4648 -18.0744 -0.844391 28.4789 -15.3339 -0.45303 28.6369 -12.4633 4.91042e-15 28.9518 -9.44434 19.018 1.15375 -46.08 20.1231 -0.0939433 -44.3692 21.3111 -0.702872 -42.5405 22.5905 -0.936287 -40.5876 23.9705 -0.950771 -38.503 25.461 -0.847827 -36.2783 27.0728 -0.698472 -33.9041 28.8178 -0.556046 -31.3697 28.5032 -1.05413 -28.4336 28.3284 -1.26025 -25.4648 28.2984 -1.24639 -22.4521 28.4189 -1.06963 -19.3837 28.6974 -0.77697 -16.2468 29.1426 -0.40854 -13.0272 29.765 -2.29468e-15 -9.70963 17.317 2.00479 -46.9756 18.7322 1.48194 -45.382 20.1473 1.3595 -43.6495 21.588 1.47693 -41.7708 23.0735 1.73246 -39.7379 24.6202 2.05682 -37.5415 26.2425 2.39984 -35.1708 27.955 2.72295 -32.6135 27.9206 2.35758 -29.6665 27.9851 2.21281 -26.6463 28.1613 2.23205 -23.5397 28.462 2.36943 -20.3318 28.9007 2.58652 -17.0059 29.4921 2.84994 -13.543 30.2527 3.12961 -9.92138 15.7915 3.03128 -47.7333 17.3878 3.06304 -46.2409 18.9401 3.339 -44.591 20.4773 3.75913 -42.7761 22.0206 4.257 -40.7875 23.5875 4.78585 -38.6151 25.1935 5.31104 -36.2468 26.8534 5.80571 -33.669 27.0111 5.5783 -30.7065 27.2346 5.51405 -27.6343 27.5413 5.57058 -24.4366 27.948 5.71329 -21.0958 28.4721 5.91309 -17.5909 29.1321 6.14477 -13.8982 29.9486 6.38573 -9.98914 14.3704 4.16224 -48.3533 16.059 4.63012 -46.9449 17.6815 5.23593 -45.3636 19.2638 5.9172 -43.6015 20.8253 6.63107 -41.6496 22.3823 7.34677 -39.4969 23.9494 8.04141 -37.1304 25.5404 8.69739 -34.5353 25.8203 8.60449 -31.5563 26.1411 8.6285 -28.4362 26.5216 8.73986 -25.157 26.9805 8.91469 -21.6982 27.537 9.13328 -18.0355 28.2118 9.37906 -14.14 29.0279 9.63778 -9.97747 13.0122 5.35607 -48.8355 14.7265 6.17189 -47.4931 16.3656 7.0516 -45.9658 17.9502 7.9571 -44.2454 19.4964 8.8618 -42.3223 21.0177 9.74659 -40.185 22.5266 10.5975 -37.8199 24.0355 11.4043 -35.211 24.3819 11.4363 -32.2171 24.7519 11.5484 -29.0566 25.164 11.7224 -25.71 25.6366 11.9442 -22.1543 26.1889 12.2031 -18.3622 26.8422 12.4908 -14.3009 27.62 12.8017 -9.93066 11.6918 6.58774 -49.18 13.3772 7.68198 -47.8851 14.9877 8.78789 -46.3966 16.5379 9.88398 -44.7062 18.0393 10.9553 -42.8039 19.5021 11.9915 -40.6778 20.9363 12.9854 -38.3137 22.3518 13.9328 -35.6948 22.7197 14.0756 -32.6891 23.1017 14.2701 -29.4983 23.514 14.5078 -26.1016 23.9731 14.7834 -22.4741 24.4968 15.0943 -18.5862 25.1049 15.4402 -14.4022 25.82 15.8233 -9.87855 10.3944 7.84238 -49.3866 12.0025 9.15726 -48.1204 13.5441 10.447 -46.6554 15.0267 11.7022 -44.9832 16.4568 12.9166 -43.0934 17.8407 14.0866 -40.974 19.1851 15.2105 -38.6105 20.4973 16.2887 -35.9856 20.85 16.5243 -32.9724 21.2149 16.7909 -29.7629 21.6043 17.0886 -26.3352 22.0313 17.4193 -22.6636 22.5106 17.7874 -18.7171 23.0592 18.1998 -14.458 23.6968 18.6657 -9.84023 9.11211 9.11211 -49.4555 10.597 10.597 -48.1989 12.0315 12.0315 -46.7417 13.4155 13.4155 -45.0755 14.7496 14.7496 -43.19 16.0356 16.0356 -41.0728 17.2764 17.2764 -38.7095 18.4761 18.4761 -36.0826 18.783 18.783 -33.0669 19.1079 19.1079 -29.851 19.4574 19.4574 -26.4129 19.84 19.84 -22.7265 20.2658 20.2658 -18.7602 20.7474 20.7474 -14.4758 21.3 21.3 -9.82632 7.84238 10.3944 -49.3866 9.15726 12.0025 -48.1204 10.447 13.5441 -46.6554 11.7022 15.0267 -44.9832 12.9166 16.4568 -43.0934 14.0866 17.8407 -40.974 15.2105 19.1851 -38.6105 16.2887 20.4973 -35.9856 16.5243 20.85 -32.9724 16.7909 21.2149 -29.7629 17.0886 21.6043 -26.3352 17.4193 22.0313 -22.6636 17.7874 22.5106 -18.7171 18.1998 23.0592 -14.458 18.6657 23.6968 -9.84023 6.58774 11.6918 -49.18 7.68198 13.3772 -47.8851 8.78789 14.9877 -46.3966 9.88398 16.5379 -44.7062 10.9553 18.0393 -42.8039 11.9915 19.5021 -40.6778 12.9854 20.9363 -38.3137 13.9328 22.3518 -35.6948 14.0756 22.7197 -32.6891 14.2701 23.1017 -29.4983 14.5078 23.514 -26.1016 14.7834 23.9731 -22.4741 15.0943 24.4968 -18.5862 15.4402 25.1049 -14.4022 15.8233 25.82 -9.87855 5.35607 13.0122 -48.8355 6.17189 14.7265 -47.4931 7.0516 16.3656 -45.9658 7.9571 17.9502 -44.2454 8.8618 19.4964 -42.3223 9.74659 21.0177 -40.185 10.5975 22.5266 -37.8199 11.4043 24.0355 -35.211 11.4363 24.3819 -32.2171 11.5484 24.7519 -29.0566 11.7224 25.164 -25.71 11.9442 25.6366 -22.1543 12.2031 26.1889 -18.3622 12.4908 26.8422 -14.3009 12.8017 27.62 -9.93066 4.16224 14.3704 -48.3533 4.63012 16.059 -46.9449 5.23593 17.6815 -45.3636 5.9172 19.2638 -43.6015 6.63107 20.8253 -41.6496 7.34677 22.3823 -39.4969 8.04141 23.9494 -37.1304 8.69739 25.5404 -34.5353 8.60449 25.8203 -31.5563 8.6285 26.1411 -28.4362 8.73986 26.5216 -25.157 8.91469 26.9805 -21.6982 9.13328 27.537 -18.0355 9.37906 28.2118 -14.14 9.63778 29.0279 -9.97747 3.03128 15.7915 -47.7333 3.06304 17.3878 -46.2409 3.339 18.9401 -44.591 3.75913 20.4773 -42.7761 4.257 22.0206 -40.7875 4.78585 23.5875 -38.6151 5.31104 25.1935 -36.2468 5.80571 26.8534 -33.669 5.5783 27.0111 -30.7065 5.51405 27.2346 -27.6343 5.57058 27.5413 -24.4366 5.71329 27.948 -21.0958 5.91309 28.4721 -17.5909 6.14477 29.1321 -13.8982 6.38573 29.9486 -9.98914 2.00479 17.317 -46.9756 1.48194 18.7322 -45.382 1.3595 20.1473 -43.6495 1.47693 21.588 -41.7708 1.73246 23.0735 -39.7379 2.05682 24.6202 -37.5415 2.39984 26.2425 -35.1708 2.72295 27.955 -32.6135 2.35758 27.9206 -29.6665 2.21281 27.9851 -26.6463 2.23205 28.1613 -23.5397 2.36943 28.462 -20.3318 2.58652 28.9007 -17.0059 2.84994 29.4921 -13.543 3.12961 30.2527 -9.92138 1.15375 19.018 -46.08 -0.0939433 20.1231 -44.3692 -0.702872 21.3111 -42.5405 -0.936287 22.5905 -40.5876 -0.950771 23.9705 -38.503 -0.847827 25.461 -36.2783 -0.698472 27.0728 -33.9041 -0.556046 28.8178 -31.3697 -1.05413 28.5032 -28.4336 -1.26025 28.3284 -25.4648 -1.24639 28.2984 -22.4521 -1.06963 28.4189 -19.3837 -0.77697 28.6974 -16.2468 -0.40854 29.1426 -13.0272 7.6081e-15 29.765 -9.70963 18.2319 1.20835 -52.1707 19.2437 -0.0758041 -50.2322 20.3616 -0.695719 -48.1225 21.5991 -0.927011 -45.8347 22.9705 -0.932625 -43.3604 24.4909 -0.818271 -40.6904 26.1768 -0.658511 -37.8139 28.0459 -0.510236 -34.7187 27.8393 -1.01532 -31.204 27.8074 -1.21705 -27.6983 27.9524 -1.1956 -24.1909 28.2773 -1.01455 -20.6705 28.7868 -0.726144 -17.1256 29.4866 -0.374863 -13.5438 30.3844 -3.30611e-15 -9.91168 16.6074 2.01582 -53.1707 17.9267 1.44015 -51.3782 19.264 1.28766 -49.3885 20.651 1.39 -47.1941 22.1126 1.64114 -44.786 23.6707 1.96898 -42.1538 25.3456 2.32091 -39.2854 27.1576 2.65595 -36.1667 27.2236 2.29773 -32.6366 27.4213 2.17358 -29.0664 27.7621 2.21983 -25.4429 28.2577 2.38485 -21.7516 28.9201 2.62534 -17.9765 29.7626 2.90374 -14.0997 30.8001 3.18625 -10.1009 15.1487 2.98904 -54.0169 16.649 2.95734 -52.3497 18.12 3.18955 -50.4629 19.5965 3.58133 -48.3486 21.1058 4.06398 -45.997 22.671 4.58929 -43.397 24.3133 5.1214 -40.5353 26.0535 5.63221 -37.3961 26.3051 5.42415 -33.8469 26.6534 5.39445 -30.214 27.1153 5.49492 -26.4813 27.7075 5.68605 -22.631 28.447 5.93459 -18.6427 29.352 6.21161 -14.4928 30.443 6.49115 -10.154 13.7896 4.06181 -54.7092 15.3834 4.45889 -53.1458 16.9233 5.01079 -51.3442 18.4411 5.65338 -49.2961 19.9622 6.34321 -46.9914 21.5083 7.04938 -44.418 23.0997 7.74896 -41.5616 24.7561 8.42426 -38.4053 25.124 8.36144 -34.8369 25.5616 8.43227 -31.1475 26.0883 8.60263 -27.3186 26.7229 8.84476 -23.3294 27.4852 9.13559 -19.1554 28.3962 9.45558 -14.7679 29.4797 9.78776 -10.1327 12.491 5.19521 -55.2476 14.1123 5.93487 -53.7657 15.669 6.75297 -52.031 17.1877 7.61168 -50.0349 18.6898 8.48524 -47.767 20.1942 9.35559 -45.2145 21.7187 10.2098 -42.3623 23.2812 11.0387 -39.1925 23.7099 11.1104 -35.