<?xml version="1.0"?> 
<VTKFile type="StructuredGrid" version="0.1"> 
<StructuredGrid WholeExtent="0 14 0 14 0 29"> 
<Piece Extent="0 14 0 14 0 29"> 
<PointData>
<DataArray type="Float32" Name="efield" format="ascii" NumberOfComponents="3"> 
16.4798 -1.24991 2.83987 17.3365 -0.935186 3.56172 18.1933 -0.57456 3.92944 19.05 -0.169913 3.95415 19.9068 0.277518 3.6414 20.7635 0.766885 2.99105 21.6203 1.29759 1.99698 22.477 1.8692 0.646282 27.2289 1.19425 -0.137377 31.9807 0.630808 0.154135 36.7326 0.196877 1.73665 41.4844 -0.0933954 4.90225 46.2363 -0.228743 10.049 50.9882 -0.200081 17.7272 55.74 -2.5332e-14 28.7126 15.4115 -2.35736 2.66574 16.1975 -2.23893 3.52309 16.9807 -2.06881 3.99587 17.7606 -1.85145 4.0979 18.5368 -1.59009 3.83614 19.3092 -1.28708 3.21056 20.0775 -0.944286 2.21368 20.8415 -0.563145 0.82953 25.746 -1.8073 -0.00861455 30.6125 -2.89001 0.198209 35.4425 -3.80215 1.66557 40.2371 -4.5368 4.69051 44.9972 -5.0887 9.68584 49.7236 -5.45388 17.2347 54.4168 -5.62937 28.1806 14.4329 -3.55442 2.5184 15.1439 -3.5738 3.49071 15.8501 -3.54409 4.05214 16.5504 -3.46968 4.21927 17.2442 -3.3539 4.00072 17.9309 -3.19933 3.39699 18.6103 -3.00807 2.39985 19.2819 -2.78183 0.991162 24.1972 -4.5579 0.104512 29.0422 -6.14407 0.233201 33.8189 -7.53688 1.59027 38.5287 -8.73417 4.47388 43.1729 -9.73474 9.30538 47.7524 -10.5382 16.6914 52.2683 -11.1448 27.5295 13.4803 -4.77748 2.39785 14.1196 -4.90066 3.46441 14.7514 -4.97992 4.09815 15.3747 -5.01887 4.31826 15.9886 -5.02035 4.13501 16.5925 -4.98668 3.54961 17.186 -4.91978 2.55357 17.7687 -4.82129 1.12719 22.5932 -7.08951 0.200019 27.3186 -9.15381 0.261712 31.9471 -11.0142 1.52179 36.4803 -12.6716 4.27735 40.9197 -14.1274 8.95407 45.2664 -15.3834 16.1747 49.5218 -16.4421 26.8788 12.5201 -5.99296 2.30409 13.0928 -6.19892 3.44407 13.6548 -6.36664 4.13389 14.2051 -6.49884 4.39499 14.7431 -6.59771 4.23911 15.2682 -6.66512 3.66821 15.78 -6.70266 2.67374 16.2783 -6.71171 1.23504 20.9372 -9.43278 0.276159 25.4711 -11.9458 0.284428 29.8824 -14.2528 1.46579 34.1729 -16.3564 4.1153 38.3445 -18.2594 8.66043 42.3987 -19.9651 15.7346 46.3369 -21.4769 26.3081 11.5335 -7.18211 2.23712 12.0443 -7.4577 3.42959 12.5407 -7.70056 4.15938 13.0221 -7.91254 4.44963 13.488 -8.09521 4.31324 13.9381 -8.24991 3.75281 14.3723 -8.37782 2.75983 14.7904 -8.48004 1.31304 19.2264 -11.6163 0.33154 23.5146 -14.5474 0.301163 27.6574 -17.2764 1.42488 31.6572 -19.8067 3.9957 35.5161 -22.1417 8.4415 39.2362 -24.2852 15.4022 42.8194 -26.2411 25.8694 10.51 -8.33435 2.19693 10.9623 -8.67173 3.42093 11.3961 -8.98154 4.17466 11.8114 -9.26483 4.48235 12.2079 -9.52257 4.35763 12.5858 -9.7556 3.8035 12.945 -9.9647 2.81155 13.2858 -10.1506 1.3602 17.4531 -13.666 0.365164 21.4527 -16.9846 0.311463 25.2875 -20.1096 1.40013 28.9601 -23.0446 3.92268 32.4734 -25.7932 8.30693 35.83 -28.3589 15.1963 39.0325 -30.7455 25.5947 9.44422 -9.44422 2.18354 9.83949 -9.83949 3.41804 10.2119 -10.2119 4.17976 10.5619 -10.5619 4.49325 10.8899 -10.8899 4.3724 11.1963 -11.1963 3.82038 11.4814 -11.4814 2.8288 11.7457 -11.7457 1.37597 15.605 -15.605 0.376437 19.2802 -19.2802 0.314945 22.7744 -22.7744 1.39185 26.0909 -26.0909 3.89816 29.2328 -29.2328 8.26158 32.2034 -32.2034 15.1266 35.006 -35.006 25.5013 8.33435 -10.51 2.19693 8.67173 -10.9623 3.42093 8.98154 -11.3961 4.17466 9.26483 -11.8114 4.48235 9.52257 -12.2079 4.35763 9.7556 -12.5858 3.8035 9.9647 -12.945 2.81155 10.1506 -13.2858 1.3602 13.666 -17.4531 0.365164 16.9846 -21.4527 0.311463 20.1096 -25.2875 1.40013 23.0446 -28.9601 3.92268 25.7932 -32.4734 8.30693 28.3589 -35.83 15.1963 30.7455 -39.0325 25.5947 7.18211 -11.5335 2.23712 7.4577 -12.0443 3.42959 7.70056 -12.5407 4.15938 7.91254 -13.0221 4.44963 8.09521 -13.488 4.31324 8.24991 -13.9381 3.75281 8.37782 -14.3723 2.75983 8.48004 -14.7904 1.31304 11.6163 -19.2264 0.33154 14.5474 -23.5146 0.301163 17.2764 -27.6574 1.42488 19.8067 -31.6572 3.9957 22.1417 -35.5161 8.4415 24.2852 -39.2362 15.4022 26.2411 -42.8194 25.8694 5.99296 -12.5201 2.30409 6.19892 -13.0928 3.44407 6.36664 -13.6548 4.13389 6.49884 -14.2051 4.39499 6.59771 -14.7431 4.23911 6.66512 -15.2682 3.66821 6.70266 -15.78 2.67374 6.71171 -16.2783 1.23504 9.43278 -20.9372 0.276159 11.9458 -25.4711 0.284428 14.2528 -29.8824 1.46579 16.3564 -34.1729 4.1153 18.2594 -38.3445 8.66043 19.9651 -42.3987 15.7346 21.4769 -46.3369 26.3081 4.77748 -13.4803 2.39785 4.90066 -14.1196 3.46441 4.97992 -14.7514 4.09815 5.01887 -15.3747 4.31826 5.02035 -15.9886 4.13501 4.98668 -16.5925 3.54961 4.91978 -17.186 2.55357 4.82129 -17.7687 1.12719 7.08951 -22.5932 0.200019 9.15381 -27.3186 0.261712 11.0142 -31.9471 1.52179 12.6716 -36.4803 4.27735 14.1274 -40.9197 8.95407 15.3834 -45.2664 16.1747 16.4421 -49.5218 26.8788 3.55442 -14.4329 2.5184 3.5738 -15.1439 3.49071 3.54409 -15.8501 4.05214 3.46968 -16.5504 4.21927 3.3539 -17.2442 4.00072 3.19933 -17.9309 3.39699 3.00807 -18.6103 2.39985 2.78183 -19.2819 0.991162 4.5579 -24.1972 0.104512 6.14407 -29.0422 0.233201 7.53688 -33.8189 1.59027 8.73417 -38.5287 4.47388 9.73474 -43.1729 9.30538 10.5382 -47.7524 16.6914 11.1448 -52.2683 27.5295 2.35736 -15.4115 2.66574 2.23893 -16.1975 3.52309 2.06881 -16.9807 3.99587 1.85145 -17.7606 4.0979 1.59009 -18.5368 3.83614 1.28708 -19.3092 3.21056 0.944286 -20.0775 2.21368 0.563145 -20.8415 0.82953 1.8073 -25.746 -0.00861455 2.89001 -30.6125 0.198209 3.80215 -35.4425 1.66557 4.5368 -40.2371 4.69051 5.0887 -44.9972 9.68584 5.45388 -49.7236 17.2347 5.62937 -54.4168 28.1806 1.24991 -16.4798 2.83987 0.935186 -17.3365 3.56172 0.57456 -18.1933 3.92944 0.169913 -19.05 3.95415 -0.277518 -19.9068 3.6414 -0.766885 -20.7635 2.99105 -1.29759 -21.6203 1.99698 -1.8692 -22.477 0.646282 -1.19425 -27.2289 -0.137377 -0.630808 -31.9807 0.154135 -0.196877 -36.7326 1.73665 0.0933954 -41.4844 4.90225 0.228743 -46.2363 10.049 0.200081 -50.9882 17.7272 2.5332e-14 -55.74 28.7126 12.311 0.68994 19.9813 14.0629 0.302195 20.0293 15.7602 0.0629682 20.2301 17.3857 -0.0387063 20.5799 18.9232 -0.00974424 21.0759 20.3574 0.144738 21.716 21.6737 0.42025 22.4991 22.8583 0.812283 23.4255 24.2525 1.01771 24.5941 25.4869 1.04714 25.8336 26.5533 0.953213 27.1445 27.444 0.775478 28.5292 28.1517 0.543626 29.992 28.669 0.279766 31.54 28.9881 6.26226e-14 33.1842 11.272 -0.128358 19.7949 12.9906 -0.75273 19.8442 14.6528 -1.22705 20.023 16.2403 -1.55997 20.3279 17.7363 -1.75727 20.7568 19.1251 -1.8234 21.3088 20.3922 -1.76242 21.9846 21.5238 -1.57847 22.7866 23.3261 -1.75721 24.0079 24.9006 -1.99075 25.3158 26.2408 -2.24334 26.7163 27.3396 -2.48837 28.2183 28.189 -2.70635 29.8347 28.7798 -2.88344 31.5838 29.1005 -3.01042 33.4907 10.3186 -1.03221 19.6373 11.9902 -1.83923 19.6982 13.6022 -2.50255 19.8693 15.136 -3.02694 20.1471 16.5748 -3.4156 20.5296 17.9032 -3.67117 21.0168 19.1071 -3.79624 21.6104 20.1732 -3.79371 22.3146 22.232 -4.3421 23.5498 24.018 -4.84833 24.8762 25.525 -5.28804 26.3049 26.7453 -5.64333 27.8516 27.6697 -5.9014 29.5376 28.287 -6.05357 31.3923 28.5825 -6.09445 33.4555 9.40509 -1.97599 19.5083 11.0233 -2.93091 19.5855 12.5765 -3.75112 19.7575 14.047 -4.43747 20.0203 15.4185 -4.99035 20.3719 16.6765 -5.41015 20.8126 17.8077 -5.69761 21.345 18.7995 -5.85394 21.9744 20.9951 -6.74864 23.2034 22.8904 -7.52374 24.5215 24.4785 -8.16229 25.9444 25.7513 -8.65189 27.4935 26.6988 -8.98368 29.1982 27.3081 -9.15152 31.098 27.5624 -9.1512 33.2458 8.50611 -2.93428 19.408 10.0665 -4.01284 19.5018 11.5552 -4.96637 19.6788 12.9555 -5.79218 19.9343 14.2525 -6.48788 20.2662 15.4328 -7.05158 20.6749 16.4842 -7.482 21.1635 17.3954 -7.77847 21.7379 19.6322 -8.99014 22.9528 21.5546 -10.0207 24.2515 23.1554 -10.8577 25.6534 24.4261 -11.4921 27.1849 25.3565 -11.9167 28.8818 25.9331 -12.126 30.7919 26.1382 -12.1149 32.9796 7.60687 -3.89232 19.3363 9.10524 -5.07664 19.4442 10.5242 -6.1456 19.627 11.8486 -7.09338 19.8796 13.065 -7.915 20.1997 14.1615 -8.60631 20.5877 15.1274 -9.16399 21.0469 15.9528 -9.58543 21.5839 18.153 -11.0802 22.7843 20.036 -12.3456 24.0629 21.5945 -13.3719 25.4417 22.8201 -14.1515 26.9507 23.7029 -14.6776 28.6305 24.2299 -14.9439 30.5353 24.3836 -14.943 32.7378 6.69884 -4.84156 19.2933 8.13022 -6.11801 19.4104 9.47376 -7.28856 19.5975 10.7162 -8.34461 19.8493 11.8459 -9.27878 20.1632 12.8527 -10.0848 20.5397 13.7276 -10.7572 20.9822 14.4621 -11.2917 21.4974 16.5612 -13.0318 22.6876 18.3505 -14.5056 23.9517 19.8226 -15.705 25.3135 20.9695 -16.6225 26.8053 21.7819 -17.2511 28.4705 22.2483 -17.5827 30.3671 22.3527 -17.607 32.5732 5.77753 -5.77753 19.279 7.13556 -7.13556 19.3993 8.39686 -8.39686 19.588 9.55039 -9.55039 19.8397 10.5865 -10.5865 20.1517 11.497 -11.497 20.5244 12.2745 -12.2745 20.9614 12.9126 -12.9126 21.4695 14.8559 -14.8559 22.656 16.5064 -16.5064 23.915 17.8564 -17.8564 25.2707 18.8984 -18.8984 26.7561 19.6242 -19.6242 28.4157 20.024 -20.024 30.3088 20.0844 -20.0844 32.5151 4.84156 -6.69884 19.2933 6.11801 -8.13022 19.4104 7.28856 -9.47376 19.5975 8.34461 -10.7162 19.8493 9.27878 -11.8459 20.1632 10.0848 -12.8527 20.5397 10.7572 -13.7276 20.9822 11.2917 -14.4621 21.4974 13.0318 -16.5612 22.6876 14.5056 -18.3505 23.9517 15.705 -19.8226 25.3135 16.6225 -20.9695 26.8053 17.2511 -21.7819 28.4705 17.5827 -22.2483 30.3671 17.607 -22.3527 32.5732 3.89232 -7.60687 19.3363 5.07664 -9.10524 19.4442 6.1456 -10.5242 19.627 7.09338 -11.8486 19.8796 7.915 -13.065 20.1997 8.60631 -14.1615 20.5877 9.16399 -15.1274 21.0469 9.58543 -15.9528 21.5839 11.0802 -18.153 22.7843 12.3456 -20.036 24.0629 13.3719 -21.5945 25.4417 14.1515 -22.8201 26.9507 14.6776 -23.7029 28.6305 14.9439 -24.2299 30.5353 14.943 -24.3836 32.7378 2.93428 -8.50611 19.408 4.01284 -10.0665 19.5018 4.96637 -11.5552 19.6788 5.79218 -12.9555 19.9343 6.48788 -14.2525 20.2662 7.05158 -15.4328 20.6749 7.482 -16.4842 21.1635 7.77847 -17.3954 21.7379 8.99014 -19.6322 22.9528 10.0207 -21.5546 24.2515 10.8577 -23.1554 25.6534 11.4921 -24.4261 27.1849 11.9167 -25.3565 28.8818 12.126 -25.9331 30.7919 12.1149 -26.1382 32.9796 1.97599 -9.40509 19.5083 2.93091 -11.0233 19.5855 3.75112 -12.5765 19.7575 4.43747 -14.047 20.0203 4.99035 -15.4185 20.3719 5.41015 -16.6765 20.8126 5.69761 -17.8077 21.345 5.85394 -18.7995 21.9744 6.74864 -20.9951 23.2034 7.52374 -22.8904 24.5215 8.16229 -24.4785 25.9444 8.65189 -25.7513 27.4935 8.98368 -26.6988 29.1982 9.15152 -27.3081 31.098 9.1512 -27.5624 33.2458 1.03221 -10.3186 19.6373 1.83923 -11.9902 19.6982 2.50255 -13.6022 19.8693 3.02694 -15.136 20.1471 3.4156 -16.5748 20.5296 3.67117 -17.9032 21.0168 3.79624 -19.1071 21.6104 3.79371 -20.1732 22.3146 4.3421 -22.232 23.5498 4.84833 -24.018 24.8762 5.28804 -25.525 26.3049 5.64333 -26.7453 27.8516 5.9014 -27.6697 29.5376 6.05357 -28.287 31.3923 6.09445 -28.5825 33.4555 0.128358 -11.272 19.7949 0.75273 -12.9906 19.8442 1.22705 -14.6528 20.023 1.55997 -16.2403 20.3279 1.75727 -17.7363 20.7568 1.8234 -19.1251 21.3088 1.76242 -20.3922 21.9846 1.57847 -21.5238 22.7866 1.75721 -23.3261 24.0079 1.99075 -24.9006 25.3158 2.24334 -26.2408 26.7163 2.48837 -27.3396 28.2183 2.70635 -28.189 29.8347 2.88344 -28.7798 31.5838 3.01042 -29.1005 33.4907 -0.68994 -12.311 19.9813 -0.302195 -14.0629 20.0293 -0.0629682 -15.7602 20.2301 0.0387063 -17.3857 20.5799 0.00974424 -18.9232 21.0759 -0.144738 -20.3574 21.716 -0.42025 -21.6737 22.4991 -0.812283 -22.8583 23.4255 -1.01771 -24.2525 24.5941 -1.04714 -25.4869 25.8336 -0.953213 -26.5533 27.1445 -0.775478 -27.444 28.5292 -0.543626 -28.1517 29.992 -0.279766 -28.669 31.54 -6.26226e-14 -28.9881 33.1842 9.83343 -0.279985 32.5526 10.9667 -0.0299037 32.8587 12.0725 0.0400021 33.2223 13.1463 0.0407395 33.6247 14.1869 0.0388196 34.0427 15.1972 0.0783269 34.4493 16.1848 0.191099 34.8135 17.163 0.40213 35.0999 17.7351 0.686955 35.2111 18.2129 0.755912 35.5795 18.579 0.689542 36.1756 18.8199 0.545491 36.9709 18.9254 0.364863 37.9392 18.8879 0.176515 39.0566 18.7018 3.78199e-14 40.3021 8.96481 -0.776139 32.3185 10.217 -0.844732 32.6424 11.4061 -1.00393 33.0021 12.5325 -1.18345 33.3748 13.5971 -1.33815 33.734 14.604 -1.43699 34.0499 15.5615 -1.45749 34.2888 16.4827 -1.38264 34.4135 17.3851 -1.37561 34.6638 18.1067 -1.47582 35.1728 18.6366 -1.62023 35.9074 18.9664 -1.76415 36.8367 19.0904 -1.87671 37.932 19.0044 -1.93766 39.1684 18.7056 -1.93508 40.5254 8.14725 -1.32336 32.1203 9.46536 -1.65647 32.4695 10.7018 -2.02002 32.8363 11.8558 -2.36752 33.1946 12.9278 -2.66755 33.5149 13.9214 -2.89817 33.7649 14.8442 -3.04399 33.9093 15.7089 -3.09433 33.9093 16.8449 -3.35521 34.2477 17.7363 -3.62719 34.8374 18.376 -3.86165 35.6434 18.7593 -4.02496 36.6331 18.8834 -4.09519 37.7774 18.7477 -4.05964 39.0515 18.3517 -3.91301 40.4367 7.36679 -1.90768 31.9582 8.71022 -2.46384 32.335 9.96305 -3.00933 32.7151 11.1215 -3.51154 33.0695 12.1842 -3.94771 33.3661 13.1533 -4.30223 33.5704 14.0354 -4.56496 33.6455 14.8421 -4.73019 33.5519 16.1281 -5.24265 33.9441 17.1263 -5.68197 34.5756 17.8314 -6.01123 35.4103 18.2407 -6.20597 36.4154 18.3542 -6.25174 37.5619 18.1735 -6.14209 38.8265 17.7009 -5.87701 40.1927 6.6148 -2.52047 31.8321 7.95039 -3.26597 32.2347 9.19236 -3.9724 32.6302 10.3336 -4.61514 32.9868 11.3704 -5.17689 33.2702 12.3033 -5.64633 33.4443 13.1374 -6.01723 33.4709 13.8834 -6.28779 33.3098 15.247 -7.02978 33.7336 16.2979 -7.62612 34.3834 17.0314 -8.04922 35.2228 17.4459 -8.28201 36.2193 17.543 -8.31602 37.3448 17.3264 -8.14969 38.5779 16.8004 -7.78689 39.9045 5.88589 -3.15634 31.7421 7.1851 -4.06231 32.1655 8.39155 -4.90941 32.5746 9.49511 -5.67766 32.9357 10.4898 -6.35323 33.2128 11.3744 -6.92775 33.3683 12.1529 -7.39791 33.3632 12.8342 -7.76499 33.1569 14.2121 -8.70925 33.5981 15.2694 -9.44717 34.2537 16.0007 -9.95849 35.0873 16.4046 -10.2319 36.0669 16.4835 -10.2635 37.1657 16.2423 -10.0553 38.3636 15.6873 -9.61365 39.649 5.17677 -3.81199 31.688 6.41385 -4.8525 32.1249 7.56196 -5.82025 32.5433 8.60843 -6.69819 32.9083 9.54532 -7.47478 33.1829 10.3698 -8.14385 33.3285 11.0842 -8.70431 33.3056 11.6961 -9.15992 33.0733 13.0328 -10.2741 33.5231 14.0568 -11.1335 34.1793 14.7605 -11.7235 35.0059 15.1419 -12.037 35.9711 15.2033 -12.0734 37.0491 14.9504 -11.8369 38.2211 14.3906 -11.3353 39.4767 4.48566 -4.48566 31.67 5.63636 -5.63636 32.1115 6.70461 -6.70461 32.5332 7.67557 -7.67557 32.8998 8.53953 -8.53953 33.1737 9.29206 -9.29206 33.3163 9.9339 -9.9339 33.2876 10.4708 -10.4708 33.0469 11.7177 -11.7177 33.4992 12.6739 -12.6739 34.1552 13.3293 -13.3293 34.9788 13.6796 -13.6796 35.9385 13.7264 -13.7264 37.0089 13.475 -13.475 38.1713 12.9335 -12.9335 39.4162 3.81199 -5.17677 31.688 4.8525 -6.41385 32.1249 5.82025 -7.56196 32.5433 6.69819 -8.60843 32.9083 7.47478 -9.54532 33.1829 8.14385 -10.3698 33.3285 8.70431 -11.0842 33.3056 9.15992 -11.6961 33.0733 10.2741 -13.0328 33.5231 11.1335 -14.0568 34.1793 11.7235 -14.7605 35.0059 12.037 -15.1419 35.9711 12.0734 -15.2033 37.0491 11.8369 -14.9504 38.2211 11.3353 -14.3906 39.4767 3.15634 -5.88589 31.7421 4.06231 -7.1851 32.1655 4.90941 -8.39155 32.5746 5.67766 -9.49511 32.9357 6.35323 -10.4898 33.2128 6.92775 -11.3744 33.3683 7.39791 -12.1529 33.3632 7.76499 -12.8342 33.1569 8.70925 -14.2121 33.5981 9.44717 -15.2694 34.2537 9.95849 -16.0007 35.0873 10.2319 -16.4046 36.0669 10.2635 -16.4835 37.1657 10.0553 -16.2423 38.3636 9.61365 -15.6873 39.649 2.52047 -6.6148 31.8321 3.26597 -7.95039 32.2347 3.9724 -9.19236 32.6302 4.61514 -10.3336 32.9868 5.17689 -11.3704 33.2702 5.64633 -12.3033 33.4443 6.01723 -13.1374 33.4709 6.28779 -13.8834 33.3098 7.02978 -15.247 33.7336 7.62612 -16.2979 34.3834 8.04922 -17.0314 35.2228 8.28201 -17.4459 36.2193 8.31602 -17.543 37.3448 8.14969 -17.3264 38.5779 7.78689 -16.8004 39.9045 1.90768 -7.36679 31.9582 2.46384 -8.71022 32.335 3.00933 -9.96305 32.7151 3.51154 -11.1215 33.0695 3.94771 -12.1842 33.3661 4.30223 -13.1533 33.5704 4.56496 -14.0354 33.6455 4.73019 -14.8421 33.5519 5.24265 -16.1281 33.9441 5.68197 -17.1263 34.5756 6.01123 -17.8314 35.4103 6.20597 -18.2407 36.4154 6.25174 -18.3542 37.5619 6.14209 -18.1735 38.8265 5.87701 -17.7009 40.1927 1.32336 -8.14725 32.1203 1.65647 -9.46536 32.4695 2.02002 -10.7018 32.8363 2.36752 -11.8558 33.1946 2.66755 -12.9278 33.5149 2.89817 -13.9214 33.7649 3.04399 -14.8442 33.9093 3.09433 -15.7089 33.9093 3.35521 -16.8449 34.2477 3.62719 -17.7363 34.8374 3.86165 -18.376 35.6434 4.02496 -18.7593 36.6331 4.09519 -18.8834 37.7774 4.05964 -18.7477 39.0515 3.91301 -18.3517 40.4367 0.776139 -8.96481 32.3185 0.844732 -10.217 32.6424 1.00393 -11.4061 33.0021 1.18345 -12.5325 33.3748 1.33815 -13.5971 33.734 1.43699 -14.604 34.0499 1.45749 -15.5615 34.2888 1.38264 -16.4827 34.4135 1.37561 -17.3851 34.6638 1.47582 -18.1067 35.1728 1.62023 -18.6366 35.9074 1.76415 -18.9664 36.8367 1.87671 -19.0904 37.932 1.93766 -19.0044 39.1684 1.93508 -18.7056 40.5254 0.279985 -9.83343 32.5526 0.0299037 -10.9667 32.8587 -0.0400021 -12.0725 33.2223 -0.0407395 -13.1463 33.6247 -0.0388196 -14.1869 34.0427 -0.0783269 -15.1972 34.4493 -0.191099 -16.1848 34.8135 -0.40213 -17.163 35.0999 -0.686955 -17.7351 35.2111 -0.755912 -18.2129 35.5795 -0.689542 -18.579 36.1756 -0.545491 -18.8199 36.9709 -0.364863 -18.9254 37.9392 -0.176515 -18.8879 39.0566 -3.78199e-14 -18.7018 40.3021 8.58248 -0.137899 34.2039 9.80515 0.219364 34.7917 10.9894 0.292744 35.2631 12.1493 0.228161 35.6199 13.2987 0.112714 35.8623 14.4519 0.0058078 35.9894 15.6233 -0.0472261 35.9994 16.8283 -0.00840473 35.889 16.9171 0.41368 35.3212 16.8092 0.629244 35.4164 16.4109 0.711368 36.2055 15.6193 0.698376 37.7287 14.3196 0.597201 40.0377 12.3813 0.383631 43.1973 9.65439 7.61633e-14 47.2886 7.64849 -0.410277 33.9056 9.04295 -0.460557 34.5972 10.3511 -0.663067 35.1361 11.5943 -0.932344 35.5189 12.7911 -1.21306 35.7392 13.9598 -1.46546 35.7881 15.12 -1.65844 35.653 16.2933 -1.76589 35.3175 16.7121 -1.57187 34.7745 16.8583 -1.47282 34.9412 16.6443 -1.40299 35.8539 15.9691 -1.32374 37.5666 14.7138 -1.22116 40.1576 12.733 -1.10634 43.7385 9.84258 -1.01821 48.4676 6.80307 -0.771231 33.6532 8.29797 -1.15217 34.4333 9.68288 -1.59731 35.0298 10.9779 -2.05652 35.4353 12.2015 -2.4952 35.6387 13.3728 -2.88788 35.6241 14.5133 -3.21486 35.3705 15.6481 -3.46052 34.8509 16.3053 -3.48916 34.3113 16.6357 -3.5129 34.5117 16.5573 -3.47095 35.4907 15.9737 -3.32266 37.3126 14.7661 -3.04491 40.0774 12.7815 -2.6311 43.9392 9.81072 -2.09187 49.1345 6.02287 -1.19739 33.4467 7.56452 -1.85151 34.2996 8.98623 -2.50995 34.9435 10.3039 -3.14327 35.3684 11.5333 -3.73044 35.559 12.6926 -4.25632 35.4943 13.803 -4.7104 35.1467 14.8914 -5.0861 34.4804 15.708 -5.32554 33.9327 16.1631 -5.47128 34.1441 16.1802 -5.46559 35.1538 15.6683 -5.26457 37.0323 14.5129 -4.83456 39.8972 12.5593 -4.1486 43.9387 9.5844 -3.18219 49.4657 5.29334 -1.67423 33.2861 6.8388 -2.55599 34.1959 8.26249 -3.40078 34.877 9.57529 -4.1913 35.3172 10.7897 -4.91547 35.4986 11.9214 -5.56575 35.3961 12.9905 -6.13894 34.9771 14.0234 -6.63631 34.1991 14.9309 -7.06878 33.6392 15.4599 -7.32976 33.8496 15.539 -7.3629 34.8692 15.0837 -7.12014 36.7728 13.986 -6.5566 39.6904 12.0957 -5.62367 43.841 9.1865 -4.25788 49.5951 4.60534 -2.1926 33.1713 6.11828 -3.26394 34.1219 7.51272 -4.26945 34.8297 8.79488 -5.19915 35.2812 9.97366 -6.04702 35.4563 11.0619 -6.81121 35.3275 12.0777 -7.49451 34.8583 13.0456 -8.1048 34.0019 13.9841 -8.707 33.4301 14.5437 -9.07116 33.6351 14.6574 -9.1409 34.6548 14.2474 -8.86325 36.5665 13.2142 -8.18184 39.5087 11.4172 -7.02632 43.7213 8.63761 -5.2934 49.621 3.95328 -2.74691 33.1025 5.40129 -3.97437 34.0776 6.7378 -5.11553 34.8014 7.96499 -6.16521 35.2598 9.08827 -7.12181 35.4313 10.1174 -7.98796 35.2869 11.0676 -8.77134 34.788 11.9607 -9.48545 33.8851 12.8779 -10.2287 33.3049 13.431 -10.6791 33.5048 13.5568 -10.779 34.522 13.1843 -10.47 36.4348 12.2238 -9.68416 39.3867 10.5483 -8.33032 43.63 7.95653 -6.26727 49.6105 3.33413 -3.33413 33.0795 4.68681 -4.68681 34.0628 5.93851 -5.93851 34.792 7.08777 -7.08777 35.2526 8.13662 -8.13662 35.4231 9.09145 -9.09145 35.2734 9.96402 -9.96402 34.7647 10.7725 -10.7725 33.8463 11.6226 -11.6226 33.2633 12.1375 -12.1375 33.4612 12.2574 -12.2574 34.477 11.9177 -11.9177 36.3896 11.0393 -11.0393 39.3439 9.51183 -9.51183 43.5964 7.16076 -7.16076 49.6027 2.74691 -3.95328 33.1025 3.97437 -5.40129 34.0776 5.11553 -6.7378 34.8014 6.16521 -7.96499 35.2598 7.12181 -9.08827 35.4313 7.98796 -10.1174 35.2869 8.77134 -11.0676 34.788 9.48545 -11.9607 33.8851 10.2287 -12.8779 33.3049 10.6791 -13.431 33.5048 10.779 -13.5568 34.522 10.47 -13.1843 36.4348 9.68416 -12.2238 39.3867 8.33032 -10.5483 43.63 6.26727 -7.95653 49.6105 2.1926 -4.60534 33.1713 3.26394 -6.11828 34.1219 4.26945 -7.51272 34.8297 5.19915 -8.79488 35.2812 6.04702 -9.97366 35.4563 6.81121 -11.0619 35.3275 7.49451 -12.0777 34.8583 8.1048 -13.0456 34.0019 8.707 -13.9841 33.4301 9.07116 -14.5437 33.6351 9.1409 -14.6574 34.6548 8.86325 -14.2474 36.5665 8.18184 -13.2142 39.5087 7.02632 -11.4172 43.7213 5.2934 -8.63761 49.621 1.67423 -5.29334 33.2861 2.55599 -6.8388 34.1959 3.40078 -8.26249 34.877 4.1913 -9.57529 35.3172 4.91547 -10.7897 35.4986 5.56575 -11.9214 35.3961 6.13894 -12.9905 34.9771 6.63631 -14.0234 34.1991 7.06878 -14.9309 33.6392 7.32976 -15.4599 33.8496 7.3629 -15.539 34.8692 7.12014 -15.0837 36.7728 6.5566 -13.986 39.6904 5.62367 -12.0957 43.841 4.25788 -9.1865 49.5951 1.19739 -6.02287 33.4467 1.85151 -7.56452 34.2996 2.50995 -8.98623 34.9435 3.14327 -10.3039 35.3684 3.73044 -11.5333 35.559 4.25632 -12.6926 35.4943 4.7104 -13.803 35.1467 5.0861 -14.8914 34.4804 5.32554 -15.708 33.9327 5.47128 -16.1631 34.1441 5.46559 -16.1802 35.1538 5.26457 -15.6683 37.0323 4.83456 -14.5129 39.8972 4.1486 -12.5593 43.9387 3.18219 -9.5844 49.4657 0.771231 -6.80307 33.6532 1.15217 -8.29797 34.4333 1.59731 -9.68288 35.0298 2.05652 -10.9779 35.4353 2.4952 -12.2015 35.6387 2.88788 -13.3728 35.6241 3.21486 -14.5133 35.3705 3.46052 -15.6481 34.8509 3.48916 -16.3053 34.3113 3.5129 -16.6357 34.5117 3.47095 -16.5573 35.4907 3.32266 -15.9737 37.3126 3.04491 -14.7661 40.0774 2.6311 -12.7815 43.9392 2.09187 -9.81072 49.1345 0.410277 -7.64849 33.9056 0.460557 -9.04295 34.5972 0.663067 -10.3511 35.1361 0.932344 -11.5943 35.5189 1.21306 -12.7911 35.7392 1.46546 -13.9598 35.7881 1.65844 -15.12 35.653 1.76589 -16.2933 35.3175 1.57187 -16.7121 34.7745 1.47282 -16.8583 34.9412 1.40299 -16.6443 35.8539 1.32374 -15.9691 37.5666 1.22116 -14.7138 40.1576 1.10634 -12.733 43.7385 1.01821 -9.84258 48.4676 0.137899 -8.58248 34.2039 -0.219364 -9.80515 34.7917 -0.292744 -10.9894 35.2631 -0.228161 -12.1493 35.6199 -0.112714 -13.2987 35.8623 -0.0058078 -14.4519 35.9894 0.0472261 -15.6233 35.9994 0.00840473 -16.8283 35.889 -0.41368 -16.9171 35.3212 -0.629244 -16.8092 35.4164 -0.711368 -16.4109 36.2055 -0.698376 -15.6193 37.7287 -0.597201 -14.3196 40.0377 -0.383631 -12.3813 43.1973 -7.61633e-14 -9.65439 47.2886 7.64539 -0.154641 36.0125 8.88946 0.337637 36.3317 10.1095 0.432988 36.601 11.3121 0.333243 36.821 12.5039 0.153639 36.9919 13.6913 -0.0305625 37.1139 14.881 -0.164487 37.1865 16.0799 -0.204367 37.2092 15.7019 0.328166 36.3937 15.2104 0.616393 36.0422 14.5381 0.73463 36.1665 13.6135 0.7264 36.7822 12.3606 0.609268 37.9088 10.697 0.377021 39.5704 8.53302 3.19099e-15 41.7959 6.6681 -0.247462 35.7835 8.1249 -0.233387 36.1805 9.50185 -0.450609 36.5039 10.8153 -0.774965 36.7489 12.0774 -1.1296 36.9095 13.2989 -1.46154 36.9775 14.491 -1.73113 36.9429 15.6668 -1.90664 36.7933 15.5884 -1.54325 36.0313 15.322 -1.32283 35.7697 14.8056 -1.1807 36.023 13.9705 -1.07662 36.8142 12.7384 -0.991418 38.1779 11.0182 -0.925607 40.1637 8.70009 -0.900016 42.8417 5.80828 -0.457745 35.5896 7.39202 -0.826682 36.0533 8.86901 -1.31597 36.4228 10.2547 -1.84736 36.6895 11.561 -2.36907 36.8421 12.7992 -2.84417 36.8661 13.9824 -3.24495 36.7434 15.1268 -3.55005 36.4518 15.2711 -3.35341 35.7191 15.1734 -3.20789 35.51 14.7767 -3.05631 35.8398 14.0161 -2.86026 36.7368 12.8142 -2.59707 38.2481 11.0753 -2.25833 40.4471 8.67498 -1.8497 43.4464 5.03537 -0.754944 35.4311 6.68229 -1.43651 35.9498 8.21189 -2.16274 36.3571 9.63471 -2.88279 36.6419 10.9595 -3.56127 36.7888 12.1962 -4.17269 36.7779 13.3578 -4.69876 36.5849 14.4616 -5.12688 36.1797 14.7618 -5.08862 35.461 14.7845 -5.01902 35.28 14.4776 -4.86665 35.6516 13.7801 -4.5937 36.6077 12.618 -4.17286 38.205 10.8951 -3.58469 40.5378 8.4786 -2.81504 43.7586 4.33029 -1.11997 35.3078 5.98994 -2.05912 35.8695 7.53129 -2.99054 36.3066 8.95881 -3.87989 36.6057 10.2772 -4.70259 36.7484 11.4939 -5.44141 36.7111 12.6203 -6.0854 36.4645 13.6738 -6.62937 35.9725 14.0713 -6.73561 35.259 14.1733 -6.73779 35.0913 13.9313 -6.58857 35.4834 13.2889 -6.24979 36.4691 12.1769 -5.68874 38.1126 10.5022 -4.8738 40.5246 8.13008 -3.76824 43.8918 3.68098 -1.54077 35.2197 5.31106 -2.6921 35.8123 6.82791 -3.7989 36.2707 8.2301 -4.83709 36.5802 9.51814 -5.78939 36.7202 10.6963 -6.64468 36.6645 11.7739 -7.39783 36.3801 12.767 -8.04977 35.8269 13.2103 -8.28151 35.1142 13.3563 -8.34671 34.9517 13.1591 -8.2007 35.3522 12.5668 -7.80409 36.3507 11.5158 -7.11829 38.0164 9.91915 -6.0991 40.4718 7.64695 -4.68629 43.9299 3.08004 -2.00993 35.1668 4.64306 -3.33404 35.778 6.1024 -4.58734 36.2493 7.45127 -5.75266 36.565 8.68608 -6.81802 36.7036 9.8078 -7.77702 36.6369 10.8231 -8.6292 36.3301 11.7455 -9.38061 35.7406 12.1897 -9.71383 35.0272 12.3496 -9.82904 34.8661 12.1809 -9.68292 35.2693 11.6362 -9.23405 36.2723 10.6577 -8.43763 37.9469 9.16719 -7.23713 40.4233 7.04555 -5.5497 43.9303 2.52345 -2.52345 35.1492 3.98432 -3.98432 35.7666 5.35535 -5.35535 36.2422 6.62472 -6.62472 36.56 7.78481 -7.78481 36.6981 8.8331 -8.8331 36.6277 9.77301 -9.77301 36.3135 10.6147 -10.6147 35.7119 11.0205 -11.0205 34.9982 11.1686 -11.1686 34.8373 11.016 -11.016 35.2409 10.5183 -10.5183 36.2449 9.62457 -9.62457 37.9219 8.26656 -8.26656 40.4044 6.34137 -6.34137 43.9268 2.00993 -3.08004 35.1668 3.33404 -4.64306 35.778 4.58734 -6.1024 36.2493 5.75266 -7.45127 36.565 6.81802 -8.68608 36.7036 7.77702 -9.8078 36.6369 8.6292 -10.8231 36.3301 9.38061 -11.7455 35.7406 9.71383 -12.1897 35.0272 9.82904 -12.3496 34.8661 9.68292 -12.1809 35.2693 9.23405 -11.6362 36.2723 8.43763 -10.6577 37.9469 7.23713 -9.16719 40.4233 5.5497 -7.04555 43.9303 1.54077 -3.68098 35.2197 2.6921 -5.31106 35.8123 3.7989 -6.82791 36.2707 4.83709 -8.2301 36.5802 5.78939 -9.51814 36.7202 6.64468 -10.6963 36.6645 7.39783 -11.7739 36.3801 8.04977 -12.767 35.8269 8.28151 -13.2103 35.1142 8.34671 -13.3563 34.9517 8.2007 -13.1591 35.3522 7.80409 -12.5668 36.3507 7.11829 -11.5158 38.0164 6.0991 -9.91915 40.4718 4.68629 -7.64695 43.9299 1.11997 -4.33029 35.3078 2.05912 -5.98994 35.8695 2.99054 -7.53129 36.3066 3.87989 -8.95881 36.6057 4.70259 -10.2772 36.7484 5.44141 -11.4939 36.7111 6.0854 -12.6203 36.4645 6.62937 -13.6738 35.9725 6.73561 -14.0713 35.259 6.73779 -14.1733 35.0913 6.58857 -13.9313 35.4834 6.24979 -13.2889 36.4691 5.68874 -12.1769 38.1126 4.8738 -10.5022 40.5246 3.76824 -8.13008 43.8918 0.754944 -5.03537 35.4311 1.43651 -6.68229 35.9498 2.16274 -8.21189 36.3571 2.88279 -9.63471 36.6419 3.56127 -10.9595 36.7888 4.17269 -12.1962 36.7779 4.69876 -13.3578 36.5849 5.12688 -14.4616 36.1797 5.08862 -14.7618 35.461 5.01902 -14.7845 35.28 4.86665 -14.4776 35.6516 4.5937 -13.7801 36.6077 4.17286 -12.618 38.205 3.58469 -10.8951 40.5378 2.81504 -8.4786 43.7586 0.457745 -5.80828 35.5896 0.826682 -7.39202 36.0533 1.31597 -8.86901 36.4228 1.84736 -10.2547 36.6895 2.36907 -11.561 36.8421 2.84417 -12.7992 36.8661 3.24495 -13.9824 36.7434 3.55005 -15.1268 36.4518 3.35341 -15.2711 35.7191 3.20789 -15.1734 35.51 3.05631 -14.7767 35.8398 2.86026 -14.0161 36.7368 2.59707 -12.8142 38.2481 2.25833 -11.0753 40.4471 1.8497 -8.67498 43.4464 0.247462 -6.6681 35.7835 0.233387 -8.1249 36.1805 0.450609 -9.50185 36.5039 0.774965 -10.8153 36.7489 1.1296 -12.0774 36.9095 1.46154 -13.2989 36.9775 1.73113 -14.491 36.9429 1.90664 -15.6668 36.7933 1.54325 -15.5884 36.0313 1.32283 -15.322 35.7697 1.1807 -14.8056 36.023 1.07662 -13.9705 36.8142 0.991418 -12.7384 38.1779 0.925607 -11.0182 40.1637 0.900016 -8.70009 42.8417 0.154641 -7.64539 36.0125 -0.337637 -8.88946 36.3317 -0.432988 -10.1095 36.601 -0.333243 -11.3121 36.821 -0.153639 -12.5039 36.9919 0.0305625 -13.6913 37.1139 0.164487 -14.881 37.1865 0.204367 -16.0799 37.2092 -0.328166 -15.7019 36.3937 -0.616393 -15.2104 36.0422 -0.73463 -14.5381 36.1665 -0.7264 -13.6135 36.7822 -0.609268 -12.3606 37.9088 -0.377021 -10.697 39.5704 -3.19099e-15 -8.53302 41.7959 6.93538 -0.303618 37.821 8.12771 0.356169 37.8837 9.31347 0.507147 37.952 10.4919 0.407889 38.0261 11.662 0.200581 38.1061 12.823 -0.0250898 38.1921 13.9739 -0.206017 38.2843 15.1139 -0.29379 38.3829 14.3793 0.310537 37.377 13.6127 0.639697 36.6689 12.7696 0.770462 36.2615 11.8048 0.752457 36.1588 10.6714 0.613946 36.3656 9.32117 0.365151 36.8881 7.70364 2.84763e-14 37.7335 5.93594 -0.25157 37.6613 7.37451 -0.12562 37.7772 8.74322 -0.312073 37.8864 10.0538 -0.646816 37.9837 11.3116 -1.03196 38.0628 12.5202 -1.40226 38.1161 13.6827 -1.71047 38.1347 14.8038 -1.92017 38.108 14.3397 -1.43652 37.182 13.7697 -1.13665 36.5788 13.0556 -0.955786 36.3015 12.1557 -0.85089 36.3566 11.0239 -0.796457 36.7553 9.6089 -0.782216 37.5154 7.85142 -0.812222 38.6626 5.07514 -0.338163 37.5261 6.66282 -0.636607 37.6879 8.15057 -1.11516 37.8318 9.5498 -1.66635 37.9489 10.8657 -2.22141 38.0276 12.1019 -2.73257 38.0542 13.2635 -3.16488 38.0119 14.3577 -3.492 37.8814 14.0999 -3.12849 37.0085 13.682 -2.86494 36.4735 13.0706 -2.64677 36.2781 12.228 -2.43632 36.4306 11.1104 -2.20962 36.9476 9.6656 -1.95441 37.8576 7.82831 -1.66917 39.2061 4.31739 -0.527815 37.4155 5.98235 -1.17008 37.6153 7.53615 -1.90164 37.7879 8.9847 -2.64945 37.9213 10.3298 -3.36391 38 11.5735 -4.00964 38.0052 12.7203 -4.56115 37.9141 13.7788 -5.00046 37.7002 13.6711 -4.75118 36.8617 13.367 -4.526 36.3692 12.8369 -4.27881 36.223 12.0468 -3.97633 36.4318 10.9562 -3.59523 37.0165 9.51402 -3.11988 38.0151 7.65192 -2.54057 39.492 3.64037 -0.798187 37.3294 5.32609 -1.72163 37.5592 6.90052 -2.67104 37.7541 8.36248 -3.59464 37.9003 9.70924 -4.45551 37.9793 10.9399 -5.22713 37.9682 12.0577 -5.89124 37.8398 13.071 -6.43669 37.562 13.0639 -6.29082 36.7449 12.8408 -6.10172 3