<?xml version="1.0"?> 
<VTKFile type="StructuredGrid" version="0.1"> 
<StructuredGrid WholeExtent="0 29 0 29 0 29"> 
<Piece Extent="0 29 0 29 0 29"> 
<PointData>
<DataArray type="Float32" Name="efield" format="ascii" NumberOfComponents="3"> 
12.0218 -0.0565871 -0.073278 12.5852 0.000447473 -0.0343967 13.1487 0.0365783 7.83368e-05 13.7121 0.0531501 0.0302808 14.2756 0.051237 0.0561345 14.839 0.0317069 0.0773512 15.4024 -0.00473108 0.0934268 15.9659 -0.0574917 0.103634 16.5293 -0.126088 0.107016 17.0928 -0.210111 0.102373 17.6562 -0.309216 0.0882472 18.2196 -0.423109 0.0629114 18.7831 -0.551537 0.024344 19.3465 -0.694285 -0.0297927 19.91 -0.851163 -0.102181 20.7368 -0.928526 -0.176673 21.827 -0.900688 -0.214843 22.9172 -0.855972 -0.224982 24.0074 -0.798005 -0.210407 25.0976 -0.730002 -0.174909 26.1878 -0.654817 -0.122814 27.278 -0.574995 -0.0590505 28.3681 -0.492812 0.0107685 29.4583 -0.41031 0.0802528 30.5485 -0.329326 0.142119 31.6387 -0.251516 0.188054 32.7289 -0.178381 0.208552 33.8191 -0.111278 0.192715 34.9093 -0.0514429 0.128016 35.9995 -2.52333e-14 -1.82366e-13 11.5488 0.303462 -0.0746529 12.1008 0.409663 -0.0311373 12.6525 0.494382 0.00653999 13.2039 0.559005 0.0385924 13.755 0.604664 0.0650113 14.3056 0.632294 0.0855652 14.8558 0.642673 0.0997958 15.4056 0.636456 0.107013 15.9547 0.614198 0.106285 16.5033 0.576375 0.0964286 17.0514 0.523396 0.0759953 17.5988 0.455615 0.0432531 18.1456 0.373344 -0.00383383 18.6918 0.276854 -0.0676297 19.2373 0.166387 -0.150857 20.0904 0.160872 -0.234084 21.2487 0.278991 -0.275892 22.4032 0.405523 -0.287036 23.5542 0.537554 -0.27102 24.7018 0.672494 -0.231867 25.8461 0.80804 -0.174183 26.9873 0.94213 -0.103231 28.1255 1.07292 -0.0250283 29.2608 1.19875 0.05355 30.3933 1.31813 0.124638 31.523 1.42971 0.179221 32.6502 1.53228 0.206943 33.7747 1.62474 0.195876 34.8968 1.70607 0.132229 36.0165 1.77538 -1.66104e-13 11.1111 0.698695 -0.0759296 11.6499 0.845168 -0.0281146 12.1884 0.970403 0.0125253 12.7263 1.07571 0.0462823 13.2635 1.16218 0.0732148 13.7999 1.23074 0.0931477 14.3354 1.28214 0.105668 14.87 1.31706 0.110123 15.4035 1.33607 0.105607 15.936 1.33966 0.0909537 16.4673 1.32827 0.0647233 16.9975 1.30227 0.0251816 17.5265 1.26201 -0.0297197 18.0543 1.20779 -0.102369 18.5808 1.13987 -0.195528 19.4506 1.20266 -0.286751 20.6593 1.40896 -0.331884 21.8611 1.61667 -0.343946 23.0562 1.82346 -0.326614 24.2451 2.02727 -0.284122 25.4278 2.22623 -0.22133 26.6046 2.41871 -0.143807 27.7757 2.60322 -0.0579339 28.9413 2.77843 0.0289745 30.1016 2.94315 0.108523 31.2566 3.09631 0.171056 32.4066 3.23692 0.205438 33.5516 3.36412 0.198784 34.6917 3.47711 0.136127 35.8271 3.57518 -1.53416e-13 10.697 1.1176 -0.0771081 11.2222 1.29783 -0.0253275 11.7466 1.45751 0.0180376 12.2702 1.59784 0.0533566 12.7928 1.71981 0.0807538 13.3141 1.82429 0.100109 13.8341 1.912 0.111054 14.3528 1.98359 0.112971 14.8699 2.03961 0.104982 15.3854 2.08055 0.0859383 15.8993 2.10684 0.0544084 16.4114 2.11887 0.00865744 16.9218 2.11698 -0.0533739 17.4305 2.10149 -0.134096 17.9372 2.07267 -0.236305 18.8157 2.2003 -0.33481 20.0599 2.49223 -0.382965 21.2943 2.77979 -0.39586 22.5195 3.06114 -0.377331 23.7358 3.33464 -0.331803 24.9434 3.59881 -0.264368 26.1426 3.85236 -0.180868 27.3337 4.09411 -0.0880144 28.5168 4.32301 0.0064834 29.6923 4.53813 0.0937517 30.8602 4.73862 0.163553 32.0207 4.92374 0.204039 33.174 5.0928 0.201447 34.3203 5.24519 0.139713 35.4596 5.38037 -1.50146e-13 10.2985 1.55208 -0.0781884 10.8098 1.76113 -0.0227755 11.3201 1.95057 0.0230798 11.8291 2.12146 0.0598213 12.3367 2.27468 0.0876363 12.8426 2.41102 0.106457 13.3467 2.53116 0.11596 13.8489 2.63569 0.115562 14.3492 2.72513 0.10441 14.8473 2.79995 0.0813732 15.3432 2.86056 0.0450293 15.8369 2.90734 -0.0063565 16.3283 2.94063 -0.0748528 16.8173 2.96074 -0.16289 17.3039 2.96795 -0.273295 18.1844 3.15707 -0.378389 19.4512 3.53176 -0.429275 20.7059 3.89735 -0.442919 21.949 4.25237 -0.423306 23.1808 4.59554 -0.375036 24.4017 4.92571 -0.303404 25.6119 5.24186 -0.214502 26.8117 5.5431 -0.115334 28.0014 5.82861 -0.0139652 29.1812 6.09767 0.0803017 30.3513 6.34964 0.156704 31.5119 6.58397 0.202749 32.6631 6.80014 0.203867 33.8052 6.9977 0.14299 34.9383 7.17626 -1.35795e-13 9.90969 1.99627 -0.0791705 10.4074 2.23034 -0.0204578 10.9036 2.44585 0.0276548 11.398 2.64372 0.0656815 11.8905 2.82474 0.0938696 12.3808 2.98962 0.112202 12.8689 3.13895 0.120396 13.3545 3.27327 0.117901 13.8377 3.39308 0.10389 14.3181 3.4988 0.0772501 14.7959 3.59083 0.0365664 15.2709 3.66952 -0.0198944 15.743 3.73519 -0.0942086 16.2122 3.78816 -0.188825 16.6785 3.82869 -0.306597 17.5552 4.07606 -0.417609 18.8337 4.53047 -0.470942 20.098 4.97188 -0.485257 21.3485 5.39917 -0.464669 22.5857 5.81134 -0.413936 23.8098 6.20752 -0.33854 25.0212 6.58693 -0.24479 26.2201 6.9489 -0.139954 27.4069 7.29281 -0.0324114 28.5817 7.61814 0.0681516 29.7449 7.92443 0.150503 30.8965 8.21126 0.201568 32.0368 8.47828 0.20605 33.166 8.72518 0.145959 34.2842 8.9517 -1.20817e-13 9.52628 2.44585 -0.0800544 10.0106 2.70193 -0.0183736 10.4929 2.94057 0.0317651 10.9729 3.16253 0.070942 11.4504 3.36853 0.0994604 11.9253 3.55917 0.11735 12.3973 3.73498 0.124368 12.8663 3.89646 0.119993 13.3323 4.04405 0.103424 13.7951 4.17813 0.0735613 14.2546 4.29907 0.0290017 14.7108 4.4072 -0.0319875 15.1636 4.50282 -0.111489 15.613 4.58623 -0.211967 16.0588 4.65768 -0.336302 16.9269 4.96024 -0.452581 18.2077 5.49119 -0.508087 19.4723 6.00597 -0.522994 20.7213 6.50373 -0.501538 21.955 6.98374 -0.448615 23.1737 7.44534 -0.369871 24.3778 7.88796 -0.271811 25.5675 8.31111 -0.161932 26.7432 8.71435 -0.0488934 27.9051 9.09732 0.0572812 29.0535 9.4597 0.144944 30.1884 9.80121 0.200499 31.3103 10.1216 0.208001 32.4191 10.4208 0.148624 33.5152 10.6985 -1.0599e-13 9.14501 2.89758 -0.08084 9.61637 3.17328 -0.0165226 10.0851 3.43266 0.0354129 10.5509 3.67637 0.0756071 11.0136 3.90501 0.104415 11.473 4.11911 0.121909 11.9291 4.31914 0.127882 12.3816 4.50554 0.121843 12.8305 4.6787 0.103009 13.2756 4.83896 0.0703 13.717 4.98666 0.0223189 14.1544 5.1221 -0.0426644 14.5879 5.24556 -0.126738 15.0174 5.3573 -0.23238 15.4428 5.45757 -0.362492 16.2982 5.8124 -0.483404 17.573 6.41664 -0.540819 18.83 7.00216 -0.556244 20.0696 7.56834 -0.534022 21.2922 8.11465 -0.479173 22.498 8.64062 -0.397486 23.6875 9.14585 -0.295636 24.861 9.63002 -0.181323 26.0186 10.0928 -0.0634469 27.1608 10.534 0.0476713 28.2876 10.9535 0.140019 29.3994 11.3509 0.199544 30.4963 11.7264 0.209722 31.5785 12.0796 0.150985 32.6463 12.4107 -1.0179e-13 8.76344 3.349 -0.0815275 9.22218 3.64241 -0.014904 9.67757 3.92059 0.0386003 10.1294 4.1841 0.0796806 10.5775 4.43346 0.108738 11.0218 4.66911 0.125885 11.462 4.89147 0.130945 11.8982 5.1009 0.123453 12.3301 5.29776 0.102647 12.7576 5.48235 0.06746 13.1809 5.65496 0.0165036 13.5996 5.81588 -0.0519504 14.0139 5.96534 -0.139995 14.4236 6.10361 -0.250118 14.8287 6.23089 -0.385243 15.6678 6.63522 -0.510171 16.9295 7.30946 -0.569237 18.1719 7.96296 -0.585108 19.3953 8.59529 -0.562221 20.6001 9.20608 -0.505702 21.7866 9.79502 -0.421465 22.9552 10.3619 -0.316332 24.1062 10.9064 -0.198175 25.2398 11.4285 -0.0761045 26.3563 11.928 0.0393041 27.4559 12.4047 0.135723 28.5389 12.8588 0.198705 29.6055 13.29 0.211219 30.6559 13.6985 0.153047 31.6902 14.0842 -9.22702e-14 8.3797 3.79825 -0.0821167 8.82615 4.1078 -0.0135175 9.26854 4.40322 0.0413291 9.70669 4.68495 0.0831661 10.1404 4.95344 0.112435 10.5697 5.20905 0.129282 10.9942 5.45214 0.13356 11.4141 5.68303 0.124826 11.8291 5.90201 0.102337 12.2393 6.10935 0.0650357 12.6445 6.30532 0.0115429 13.0446 6.49015 -0.0598678 13.4398 6.66407 -0.151293 13.8298 6.82729 -0.26523 14.2148 6.98002 -0.404619 15.0344 7.43125 -0.532962 16.2767 8.1722 -0.593429 17.4983 8.89084 -0.609678 18.6995 9.58688 -0.586223 19.8808 10.2601 -0.528283 21.0424 10.9104 -0.44188 22.1846 11.5375 -0.333956 23.3078 12.1414 -0.212533 24.4122 12.722 -0.0868961 25.498 13.2793 0.0321638 26.5656 13.8133 0.132051 27.6151 14.3239 0.197982 28.6468 14.8113 0.212494 29.6608 15.2755 0.15481 30.6574 15.7165 -8.30576e-14 7.99236 4.2439 -0.0826078 8.42682 4.56835 -0.0123627 8.85645 4.87972 0.0436008 9.2811 5.17839 0.0860662 9.70066 5.46469 0.11551 10.115 5.73895 0.132106 10.5241 6.00146 0.135733 10.9278 6.25248 0.125967 11.326 6.49226 0.102078 11.7188 6.72105 0.0630227 12.1061 6.93905 0.00742595 12.4878 7.14648 -0.066436 12.8639 7.34353 -0.160662 13.2344 7.53039 -0.277758 13.5993 7.70724 -0.420678 14.3966 8.2029 -0.551847 15.6139 9.00726 -0.613471 16.8093 9.78813 -0.63003 17.9831 10.5454 -0.606104 19.1357 11.2788 -0.54699 20.2674 11.9885 -0.458794 21.3785 12.6743 -0.348562 22.4692 13.3363 -0.224436 23.54 13.9744 -0.0958476 24.5909 14.5887 0.0262361 25.6222 15.1793 0.128999 26.6342 15.7462 0.197378 27.6272 16.2895 0.213552 28.6012 16.8093 0.156276 29.5565 17.3058 -7.29194e-14 7.60034 4.68487 -0.0830006 8.02303 5.02322 -0.0114393 8.44009 5.34953 0.0454166 8.8514 5.66407 0.0883834 9.25689 5.96713 0.117965 9.65648 6.25897 0.134361 10.0501 6.53981 0.137468 10.4377 6.80988 0.126877 10.8193 7.06938 0.101872 11.1948 7.31851 0.061417 11.5642 7.55745 0.00414345 11.9275 7.78638 -0.0716712 12.2846 8.00547 -0.168128 12.6356 8.21487 -0.287738 12.9805 8.41474 -0.433467 13.753 8.95248 -0.566883 14.9403 9.81695 -0.629427 16.1046 10.6571 -0.646231 17.2463 11.4729 -0.621931 18.3658 12.2643 -0.561881 19.4632 13.0313 -0.47226 20.5389 13.7741 -0.360193 21.5933 14.4925 -0.233918 22.6264 15.1868 -0.102981 23.6387 15.8571 0.0215089 24.6303 16.5033 0.126562 25.6014 17.1258 0.196892 26.5523 17.7245 0.214395 27.4832 18.2997 0.157447 28.3943 18.8514 -6.30769e-14 7.20284 5.12036 -0.0832952 7.61391 5.47184 -0.0107469 8.01851 5.81226 0.0467776 8.41657 6.14185 0.0901196 8.80806 6.46082 0.119805 9.19293 6.76936 0.13605 9.57116 7.06767 0.138766 9.94273 7.3559 0.127557 10.3076 7.63423 0.101717 10.6658 7.90282 0.0602154 11.0174 8.16181 0.00168804 11.3622 8.41135 -0.0755861 11.7004 8.65157 -0.173709 12.0319 8.88261 -0.295198 12.3568 9.10459 -0.443025 13.1022 9.68219 -0.578119 14.2548 10.6034 -0.641348 15.3837 11.4998 -0.658335 16.4891 12.3714 -0.633754 17.5713 13.2183 -0.573007 18.6307 14.0405 -0.482321 19.6674 14.8382 -0.368885 20.6817 15.6115 -0.241006 21.6739 16.3604 -0.108316 22.6443 17.0852 0.0179724 23.5931 17.7861 0.124737 24.5204 18.4631 0.196528 25.4266 19.1164 0.215025 26.3118 19.7462 0.158324 27.1762 20.3527 -5.9611e-14 6.79931 5.54982 -0.0834916 7.19881 5.91382 -0.0102854 7.59097 6.26773 0.0476845 7.97578 6.61172 0.0912763 8.35324 6.94593 0.12103 8.72336 7.2705 0.137174 9.08613 7.58557 0.13963 9.44158 7.89128 0.12801 9.78972 8.18774 0.101614 10.1306 8.47507 0.0594157 10.4642 8.75339 5.41883e-05 10.7905 9.02282 -0.0781907 11.1097 9.28346 -0.177422 11.4217 9.53543 -0.30016 11.7266 9.77881 -0.449381 12.4425 10.3941 -0.58559 13.5563 11.3688 -0.649274 14.6458 12.3184 -0.666382 15.711 13.2429 -0.641614 16.7524 14.1427 -0.580403 17.7701 15.0177 -0.48901 18.7645 15.8682 -0.374664 19.7357 16.6943 -0.245719 20.6841 17.4962 -0.111864 21.6097 18.2741 0.0156189 22.513 19.0281 0.123522 23.3941 19.7585 0.196284 24.2531 20.4654 0.215443 25.0905 21.149 0.158908 25.9062 21.8095 -6.41759e-14 6.38938 5.97289 -0.0835899 6.77726 6.34897 -0.0100547 7.1569 6.71591 0.0481378 7.52836 7.0738 0.0918544 7.89168 7.42275 0.121642 8.24691 7.76283 0.137736 8.59408 8.09415 0.140062 8.93325 8.41678 0.128237 9.26448 8.73083 0.101562 9.58781 9.03636 0.0590162 9.90331 9.33347 -0.000761811 10.211 9.62224 -0.0794913 10.511 9.90275 -0.179276 10.8033 10.1751 -0.302637 11.088 10.4393 -0.452554 11.7724 11.0902 -0.589319 12.8435 12.1149 -0.65323 13.8898 13.1144 -0.670398 14.9113 14.0891 -0.645538 15.9085 15.039 -0.584094 16.8815 15.9643 -0.492349 17.8306 16.8653 -0.377549 18.7559 17.7422 -0.248072 19.6577 18.5951 -0.113636 20.5362 19.4243 0.0144435 21.3917 20.2299 0.122914 22.2243 21.0123 0.196162 23.0343 21.7714 0.215653 23.8219 22.5077 0.1592 24.5872 23.2212 -5.18077e-14 5.97289 6.38938 -0.0835899 6.34897 6.77726 -0.0100547 6.71591 7.1569 0.0481378 7.0738 7.52836 0.0918544 7.42275 7.89168 0.121642 7.76283 8.24691 0.137736 8.09415 8.59408 0.140062 8.41678 8.93325 0.128237 8.73083 9.26448 0.101562 9.03636 9.58781 0.0590162 9.33347 9.90331 -0.000761811 9.62224 10.211 -0.0794913 9.90275 10.511 -0.179276 10.1751 10.8033 -0.302637 10.4393 11.088 -0.452554 11.0902 11.7724 -0.589319 12.1149 12.8435 -0.65323 13.1144 13.8898 -0.670398 14.0891 14.9113 -0.645538 15.039 15.9085 -0.584094 15.9643 16.8815 -0.492349 16.8653 17.8306 -0.377549 17.7422 18.7559 -0.248072 18.5951 19.6577 -0.113636 19.4243 20.5362 0.0144435 20.2299 21.3917 0.122914 21.0123 22.2243 0.196162 21.7714 23.0343 0.215653 22.5077 23.8219 0.1592 23.2212 24.5872 -5.76128e-14 5.54982 6.79931 -0.0834916 5.91382 7.19881 -0.0102854 6.26773 7.59097 0.0476845 6.61172 7.97578 0.0912763 6.94593 8.35324 0.12103 7.2705 8.72336 0.137174 7.58557 9.08613 0.13963 7.89128 9.44158 0.12801 8.18774 9.78972 0.101614 8.47507 10.1306 0.0594157 8.75339 10.4642 5.41883e-05 9.02282 10.7905 -0.0781907 9.28346 11.1097 -0.177422 9.53543 11.4217 -0.30016 9.77881 11.7266 -0.449381 10.3941 12.4425 -0.58559 11.3688 13.5563 -0.649274 12.3184 14.6458 -0.666382 13.2429 15.711 -0.641614 14.1427 16.7524 -0.580403 15.0177 17.7701 -0.48901 15.8682 18.7645 -0.374664 16.6943 19.7357 -0.245719 17.4962 20.6841 -0.111864 18.2741 21.6097 0.0156189 19.0281 22.513 0.123522 19.7585 23.3941 0.196284 20.4654 24.2531 0.215443 21.149 25.0905 0.158908 21.8095 25.9062 -5.82821e-14 5.12036 7.20284 -0.0832952 5.47184 7.61391 -0.0107469 5.81226 8.01851 0.0467776 6.14185 8.41657 0.0901196 6.46082 8.80806 0.119805 6.76936 9.19293 0.13605 7.06767 9.57116 0.138766 7.3559 9.94273 0.127557 7.63423 10.3076 0.101717 7.90282 10.6658 0.0602154 8.16181 11.0174 0.00168804 8.41135 11.3622 -0.0755861 8.65157 11.7004 -0.173709 8.88261 12.0319 -0.295198 9.10459 12.3568 -0.443025 9.68219 13.1022 -0.578119 10.6034 14.2548 -0.641348 11.4998 15.3837 -0.658335 12.3714 16.4891 -0.633754 13.2183 17.5713 -0.573007 14.0405 18.6307 -0.482321 14.8382 19.6674 -0.368885 15.6115 20.6817 -0.241006 16.3604 21.6739 -0.108316 17.0852 22.6443 0.0179724 17.7861 23.5931 0.124737 18.4631 24.5204 0.196528 19.1164 25.4266 0.215025 19.7462 26.3118 0.158324 20.3527 27.1762 -5.7987e-14 4.68487 7.60034 -0.0830006 5.02322 8.02303 -0.0114393 5.34953 8.44009 0.0454166 5.66407 8.8514 0.0883834 5.96713 9.25689 0.117965 6.25897 9.65648 0.134361 6.53981 10.0501 0.137468 6.80988 10.4377 0.126877 7.06938 10.8193 0.101872 7.31851 11.1948 0.061417 7.55745 11.5642 0.00414345 7.78638 11.9275 -0.0716712 8.00547 12.2846 -0.168128 8.21487 12.6356 -0.287738 8.41474 12.9805 -0.433467 8.95248 13.753 -0.566883 9.81695 14.9403 -0.629427 10.6571 16.1046 -0.646231 11.4729 17.2463 -0.621931 12.2643 18.3658 -0.561881 13.0313 19.4632 -0.47226 13.7741 20.5389 -0.360193 14.4925 21.5933 -0.233918 15.1868 22.6264 -0.102981 15.8571 23.6387 0.0215089 16.5033 24.6303 0.126562 17.1258 25.6014 0.196892 17.7245 26.5523 0.214395 18.2997 27.4832 0.157447 18.8514 28.3943 -6.60708e-14 4.2439 7.99236 -0.0826078 4.56835 8.42682 -0.0123627 4.87972 8.85645 0.0436008 5.17839 9.2811 0.0860662 5.46469 9.70066 0.11551 5.73895 10.115 0.132106 6.00146 10.5241 0.135733 6.25248 10.9278 0.125967 6.49226 11.326 0.102078 6.72105 11.7188 0.0630227 6.93905 12.1061 0.00742595 7.14648 12.4878 -0.066436 7.34353 12.8639 -0.160662 7.53039 13.2344 -0.277758 7.70724 13.5993 -0.420678 8.2029 14.3966 -0.551847 9.00726 15.6139 -0.613471 9.78813 16.8093 -0.63003 10.5454 17.9831 -0.606104 11.2788 19.1357 -0.54699 11.9885 20.2674 -0.458794 12.6743 21.3785 -0.348562 13.3363 22.4692 -0.224436 13.9744 23.54 -0.0958476 14.5887 24.5909 0.0262361 15.1793 25.6222 0.128999 15.7462 26.6342 0.197378 16.2895 27.6272 0.213552 16.8093 28.6012 0.156276 17.3058 29.5565 -6.68901e-14 3.79825 8.3797 -0.0821167 4.1078 8.82615 -0.0135175 4.40322 9.26854 0.0413291 4.68495 9.70669 0.0831661 4.95344 10.1404 0.112435 5.20905 10.5697 0.129282 5.45214 10.9942 0.13356 5.68303 11.4141 0.124826 5.90201 11.8291 0.102337 6.10935 12.2393 0.0650357 6.30532 12.6445 0.0115429 6.49015 13.0446 -0.0598678 6.66407 13.4398 -0.151293 6.82729 13.8298 -0.26523 6.98002 14.2148 -0.404619 7.43125 15.0344 -0.532962 8.1722 16.2767 -0.593429 8.89084 17.4983 -0.609678 9.58688 18.6995 -0.586223 10.2601 19.8808 -0.528283 10.9104 21.0424 -0.44188 11.5375 22.1846 -0.333956 12.1414 23.3078 -0.212533 12.722 24.4122 -0.0868961 13.2793 25.498 0.0321638 13.8133 26.5656 0.132051 14.3239 27.6151 0.197982 14.8113 28.6468 0.212494 15.2755 29.6608 0.15481 15.7165 30.6574 -7.82585e-14 3.349 8.76344 -0.0815275 3.64241 9.22218 -0.014904 3.92059 9.67757 0.0386003 4.1841 10.1294 0.0796806 4.43346 10.5775 0.108738 4.66911 11.0218 0.125885 4.89147 11.462 0.130945 5.1009 11.8982 0.123453 5.29776 12.3301 0.102647 5.48235 12.7576 0.06746 5.65496 13.1809 0.0165036 5.81588 13.5996 -0.0519504 5.96534 14.0139 -0.139995 6.10361 14.4236 -0.250118 6.23089 14.8287 -0.385243 6.63522 15.6678 -0.510171 7.30946 16.9295 -0.569237 7.96296 18.1719 -0.585108 8.59529 19.3953 -0.562221 9.20608 20.6001 -0.505702 9.79502 21.7866 -0.421465 10.3619 22.9552 -0.316332 10.9064 24.1062 -0.198175 11.4285 25.2398 -0.0761045 11.928 26.3563 0.0393041 12.4047 27.4559 0.135723 12.8588 28.5389 0.198705 13.29 29.6055 0.211219 13.6985 30.6559 0.153047 14.0842 31.6902 -9.22702e-14 2.89758 9.14501 -0.08084 3.17328 9.61637 -0.0165226 3.43266 10.0851 0.0354129 3.67637 10.5509 0.0756071 3.90501 11.0136 0.104415 4.11911 11.473 0.121909 4.31914 11.9291 0.127882 4.50554 12.3816 0.121843 4.6787 12.8305 0.103009 4.83896 13.2756 0.0703 4.98666 13.717 0.0223189 5.1221 14.1544 -0.0426644 5.24556 14.5879 -0.126738 5.3573 15.0174 -0.23238 5.45757 15.4428 -0.362492 5.8124 16.2982 -0.483404 6.41664 17.573 -0.540819 7.00216 18.83 -0.556244 7.56834 20.0696 -0.534022 8.11465 21.2922 -0.479173 8.64062 22.498 -0.397486 9.14585 23.6875 -0.295636 9.63002 24.861 -0.181323 10.0928 26.0186 -0.0634469 10.534 27.1608 0.0476713 10.9535 28.2876 0.140019 11.3509 29.3994 0.199544 11.7264 30.4963 0.209722 12.0796 31.5785 0.150985 12.4107 32.6463 -1.01314e-13 2.44585 9.52628 -0.0800544 2.70193 10.0106 -0.0183736 2.94057 10.4929 0.0317651 3.16253 10.9729 0.070942 3.36853 11.4504 0.0994604 3.55917 11.9253 0.11735 3.73498 12.3973 0.124368 3.89646 12.8663 0.119993 4.04405 13.3323 0.103424 4.17813 13.7951 0.0735613 4.29907 14.2546 0.0290017 4.4072 14.7108 -0.0319875 4.50282 15.1636 -0.111489 4.58623 15.613 -0.211967 4.65768 16.0588 -0.336302 4.96024 16.9269 -0.452581 5.49119 18.2077 -0.508087 6.00597 19.4723 -0.522994 6.50373 20.7213 -0.501538 6.98374 21.955 -0.448615 7.44534 23.1737 -0.369871 7.88796 24.3778 -0.271811 8.31111 25.5675 -0.161932 8.71435 26.7432 -0.0488934 9.09732 27.9051 0.0572812 9.4597 29.0535 0.144944 9.80121 30.1884 0.200499 10.1216 31.3103 0.208001 10.4208 32.4191 0.148624 10.6985 33.5152 -1.0599e-13 1.99627 9.90969 -0.0791705 2.23034 10.4074 -0.0204578 2.44585 10.9036 0.0276548 2.64372 11.398 0.0656815 2.82474 11.8905 0.0938696 2.98962 12.3808 0.112202 3.13895 12.8689 0.120396 3.27327 13.3545 0.117901 3.39308 13.8377 0.10389 3.4988 14.3181 0.0772501 3.59083 14.7959 0.0365664 3.66952 15.2709 -0.0198944 3.73519 15.743 -0.0942086 3.78816 16.2122 -0.188825 3.82869 16.6785 -0.306597 4.07606 17.5552 -0.417609 4.53047 18.8337 -0.470942 4.97188 20.098 -0.485257 5.39917 21.3485 -0.464669 5.81134 22.5857 -0.413936 6.20752 23.8098 -0.33854 6.58693 25.0212 -0.24479 6.9489 26.2201 -0.139954 7.29281 27.4069 -0.0324114 7.61814 28.5817 0.0681516 7.92443 29.7449 0.150503 8.21126 30.8965 0.201568 8.47828 32.0368 0.20605 8.72518 33.166 0.145959 8.9517 34.2842 -1.26274e-13 1.55208 10.2985 -0.0781884 1.76113 10.8098 -0.0227755 1.95057 11.3201 0.0230798 2.12146 11.8291 0.0598213 2.27468 12.3367 0.0876363 2.41102 12.8426 0.106457 2.53116 13.3467 0.11596 2.63569 13.8489 0.115562 2.72513 14.3492 0.10441 2.79995 14.8473 0.0813732 2.86056 15.3432 0.0450293 2.90734 15.8369 -0.0063565 2.94063 16.3283 -0.0748528 2.96074 16.8173 -0.16289 2.96795 17.3039 -0.273295 3.15707 18.1844 -0.378389 3.53176 19.4512 -0.429275 3.89735 20.7059 -0.442919 4.25237 21.949 -0.423306 4.59554 23.1808 -0.375036 4.92571 24.4017 -0.303404 5.24186 25.6119 -0.214502 5.5431 26.8117 -0.115334 5.82861 28.0014 -0.0139652 6.09767 29.1812 0.0803017 6.34964 30.3513 0.156704 6.58397 31.5119 0.202749 6.80014 32.6631 0.203867 6.9977 33.8052 0.14299 7.17626 34.9383 -1.24984e-13 1.1176 10.697 -0.0771081 1.29783 11.2222 -0.0253275 1.45751 11.7466 0.0180376 1.59784 12.2702 0.0533566 1.71981 12.7928 0.0807538 1.82429 13.3141 0.100109 1.912 13.8341 0.111054 1.98359 14.3528 0.112971 2.03961 14.8699 0.104982 2.08055 15.3854 0.0859383 2.10684 15.8993 0.0544084 2.11887 16.4114 0.00865744 2.11698 16.9218 -0.0533739 2.10149 17.4305 -0.134096 2.07267 17.9372 -0.236305 2.2003 18.8157 -0.33481 2.49223 20.0599 -0.382965 2.77979 21.2943 -0.39586 3.06114 22.5195 -0.377331 3.33464 23.7358 -0.331803 3.59881 24.9434 -0.264368 3.85236 26.1426 -0.180868 4.09411 27.3337 -0.0880144 4.32301 28.5168 0.0064834 4.53813 29.6923 0.0937517 4.73862 30.8602 0.163553 4.92374 32.0207 0.204039 5.0928 33.174 0.201447 5.24519 34.3203 0.139713 5.38037 35.4596 -1.50341e-13 0.698695 11.1111 -0.0759296 0.845168 11.6499 -0.0281146 0.970403 12.1884 0.0125253 1.07571 12.7263 0.0462823 1.16218 13.2635 0.0732148 1.23074 13.7999 0.0931477 1.28214 14.3354 0.105668 1.31706 14.87 0.110123 1.33607 15.4035 0.105607 1.33966 15.936 0.0909537 1.32827 16.4673 0.0647233 1.30227 16.9975 0.0251816 1.26201 17.5265 -0.0297197 1.20779 18.0543 -0.102369 1.13987 18.5808 -0.195528 1.20266 19.4506 -0.286751 1.40896 20.6593 -0.331884 1.61667 21.8611 -0.343946 1.82346 23.0562 -0.326614 2.02727 24.2451 -0.284122 2.22623 25.4278 -0.22133 2.41871 26.6046 -0.143807 2.60322 27.7757 -0.0579339 2.77843 28.9413 0.0289745 2.94315 30.1016 0.108523 3.09631 31.2566 0.171056 3.23692 32.4066 0.205438 3.36412 33.5516 0.198784 3.47711 34.6917 0.136127 3.57518 35.8271 -1.58577e-13 0.303462 11.5488 -0.0746529 0.409663 12.1008 -0.0311373 0.494382 12.6525 0.00653999 0.559005 13.2039 0.0385924 0.604664 13.755 0.0650113 0.632294 14.3056 0.0855652 0.642673 14.8558 0.0997958 0.636456 15.4056 0.107013 0.614198 15.9547 0.106285 0.576375 16.5033 0.0964286 0.523396 17.0514 0.0759953 0.455615 17.5988 0.0432531 0.373344 18.1456 -0.00383383 0.276854 18.6918 -0.0676297 0.166387 19.2373 -0.150857 0.160872 20.0904 -0.234084 0.278991 21.2487 -0.275892 0.405523 22.4032 -0.287036 0.537554 23.5542 -0.27102 0.672494 24.7018 -0.231867 0.80804 25.8461 -0.174183 0.94213 26.9873 -0.103231 1.07292 28.1255 -0.0250283 1.19875 29.2608 0.05355 1.31813 30.3933 0.124638 1.42971 31.523 0.179221 1.53228 32.6502 0.206943 1.62474 33.7747 0.195876 1.70607 34.8968 0.132229 1.77538 36.0165 -1.71148e-13 -0.0565871 12.0218 -0.073278 0.000447473 12.5852 -0.0343967 0.0365783 13.1487 7.83368e-05 0.0531501 13.7121 0.0302808 0.051237 14.2756 0.0561345 0.0317069 14.839 0.0773512 -0.00473108 15.4024 0.0934268 -0.0574917 15.9659 0.103634 -0.126088 16.5293 0.107016 -0.210111 17.0928 0.102373 -0.309216 17.6562 0.0882472 -0.423109 18.2196 0.0629114 -0.551537 18.7831 0.024344 -0.694285 19.3465 -0.0297927 -0.851163 19.91 -0.102181 -0.928526 20.7368 -0.176673 -0.900688 21.827 -0.214843 -0.855972 22.9172 -0.224982 -0.798005 24.0074 -0.210407 -0.730002 25.0976 -0.174909 -0.654817 26.1878 -0.122814 -0.574995 27.278 -0.0590505 -0.492812 28.3681 0.0107685 -0.41031 29.4583 0.0802528 -0.329326 30.5485 0.142119 -0.251516 31.6387 0.188054 -0.178381 32.7289 0.208552 -0.111278 33.8191 0.192715 -0.0514429 34.9093 0.128016 -2.52333e-14 35.9995 -1.82366e-13 10.3466 -0.257098 -13.9069 10.9278 -0.133768 -14.1035 11.5042 -0.0372435 -14.2978 12.0744 0.0335987 -14.4901 12.6371 0.0795579 -14.6805 13.1911 0.101214 -14.8692 13.7349 0.0990022 -15.0561 14.2673 0.0732621 -15.2411 14.7868 0.0242786 -15.4241 15.2924 -0.0476907 -15.6049 15.7825 -0.142394 -15.7831 16.256 -0.25957 -15.9582 16.7118 -0.398932 -16.1299 17.1486 -0.560161 -16.2975 17.5653 -0.742898 -16.4604 18.1993 -0.848676 -16.7166 19.0368 -0.841438 -17.1165 19.8319 -0.812254 -17.5781 20.5806 -0.76631 -18.1017 21.2795 -0.708015 -18.6875 21.9248 -0.64109 -19.3361 22.513 -0.56864 -20.0478 23.0406 -0.493219 -20.8232 23.5042 -0.416873 -21.6633 23.9005 -0.341188 -22.5689 24.2261 -0.267327 -23.5413 24.4777 -0.196055 -24.5822 24.6522 -0.127768 -25.6935 24.7462 -0.0625115 -26.8776 24.7565 -1.54867e-13 -28.1376 9.97756 0.105121 -13.7732 10.5464 0.261792 -13.9779 11.1102 0.392692 -14.1775 11.6676 0.498708 -14.3722 12.2172 0.580476 -14.5621 12.7578 0.638461 -14.7475 13.288 0.673014 -14.9284 13.8064 0.684414 -15.1046 14.3117 0.672899 -15.2761 14.8028 0.63869 -15.4427 15.2782 0.582012 -15.6042 15.7369 0.503102 -15.7601 16.1775 0.402229 -15.9101 16.5991 0.279695 -16.0536 17.0006 0.135846 -16.1901 17.6711 0.0973131 -16.4362 18.592 0.190507 -16.8448 19.4641 0.293601 -17.3166 20.2837 0.402068 -17.8521 21.0469 0.512055 -18.4518 21.7501 0.62032 -19.1163 22.3896 0.724169 -19.8464 22.9619 0.821413 -20.6429 23.4634 0.910321 -21.5071 23.8907 0.989589 -22.4402 24.2402 1.05831 -23.444 24.5087 1.11595 -24.5205 24.6927 1.16232 -25.6721 24.7887 1.19757 -26.902 24.7933 1.22215 -28.2137 9.62165 0.480499 -13.6491 10.1781 0.666691 -13.8625 10.7292 0.828263 -14.0681 11.2736 0.965876 -14.2662 11.8099 1.08 -14.4571 12.3368 1.17097 -14.6407 12.853 1.23904 -14.8173 13.3571 1.28442 -14.9867 13.8479 1.30727 -15.1489 14.3241 1.30779 -15.3037 14.7846 1.28614 -15.451 15.228 1.24252 -15.5904 15.6533 1.17718 -15.7215 16.0595 1.09039 -15.844 16.4455 0.982466 -15.9573 17.1434 1.00824 -16.193 18.131 1.18561 -16.606 19.0646 1.36218 -17.0831 19.9403 1.53392 -17.6248 20.7544 1.69742 -18.2319 21.503 1.84979 -18.9053 22.1825 1.98864 -19.646 22.7891 2.11205 -20.4553 23.3192 2.21851 -21.3346 23.7693 2.30692 -22.2856 24.1358 2.37655 -23.3105 24.4152 2.427 -24.4118 24.6039 2.45823 -25.5924 24.6984 2.47048 -26.8561 24.6951 2.46432 -28.2072 9.27437 0.864512 -13.5346 9.8186 1.07725 -13.7569 10.3571 1.26654 -13.9691 10.8885 1.43283 -14.1714 11.4114 1.57643 -14.3641 11.9246 1.69756 -14.5472 12.4266 1.79636 -14.7209 12.9163 1.87298 -14.8852 13.3923 1.9275 -15.0399 13.8536 1.96005 -15.185 14.2988 1.97076 -15.3203 14.7268 1.95979 -15.4456 15.1366 1.92733 -15.5605 15.5271 1.87361 -15.6647 15.8975 1.79893 -15.7577 16.6152 1.88609 -15.9831 17.6547 2.14545 -16.3973 18.636 2.39449 -16.8759 19.555 2.62957 -17.4195 20.408 2.84758 -18.0292 21.1911 3.04589 -18.7062 21.9004 3.22234 -19.4516 22.5323 3.37518 -20.2671 23.083 3.50305 -21.1545 23.5488 3.60498 -22.1159 23.9262 3.68032 -23.1538 24.2115 3.72876 -24.2712 24.401 3.75031 -25.4717 24.4912 3.74525 -26.7596 24.4783 3.71415 -28.1399 8.93242 1.25386 -13.4296 9.46469 1.49075 -13.6609 9.99074 1.70533 -13.8799 10.5092 1.89786 -14.0869 11.0188 2.06851 -14.2822 11.5181 2.21738 -14.4657 12.006 2.34452 -14.6377 12.4812 2.44998 -14.7981 12.9424 2.53379 -14.9469 13.3886 2.596 -15.0841 13.8184 2.6367 -15.2094 14.231 2.65599 -15.3227 14.6251 2.65402 -15.4237 15 2.63098 -15.512 15.3545 2.58713 -15.5873 16.0851 2.73277 -15.8027 17.1637 3.07162 -16.2159 18.1804 3.39167 -16.6933 19.1314 3.68957 -17.2357 20.0128 3.9624 -17.8445 20.8206 4.20775 -18.521 21.5509 4.42356 -19.2668 22.2001 4.60821 -20.0836 22.7642 4.76041 -20.9738 23.2397 4.87924 -21.9397 23.6228 4.96408 -22.9843 23.9098 5.01465 -24.1111 24.0971 5.03091 -25.3242 24.1808 5.01315 -26.6285 24.1573 4.96186 -28.0298 8.59335 1.64608 -13.3341 9.11391 1.90515 -13.5742 9.62769 2.14299 -13.8001 10.1334 2.3597 -14.0121 10.6297 2.55533 -14.2103 11.1153 2.72985 -14.395 11.589 2.88323 -14.5662 12.0497 3.01543 -14.7239 12.4961 3.12642 -14.8681 12.9271 3.21619 -14.9988 13.3416 3.28476 -15.1158 13.7385 3.33219 -15.2189 14.117 3.35857 -15.308 14.4761 3.36406 -15.3827 14.8148 3.34885 -15.4426 15.5523 3.55013 -15.6487 16.6584 3.96571 -16.0593 17.6998 4.35494 -16.5336 18.6727 4.71465 -17.0727 19.5731 5.04209 -17.6781 20.397 5.33492 -18.3513 21.1405 5.59118 -19.0942 21.7999 5.80927 -19.9088 22.3714 5.98794 -20.7978 22.8511 6.12624 -21.7639 23.2355 6.22355 -22.8105 23.5207 6.27951 -23.9415 23.7031 6.29404 -25.1616 23.779 6.26731 -26.4763 23.7444 6.19971 -27.892 8.25529 2.03931 -13.2482 8.76436 2.31889 -13.4966 9.26604 2.57827 -13.7293 9.75906 2.8174 -13.9463 10.2422 3.0362 -14.1478 10.7141 3.23455 -14.3341 11.1737 3.41234 -14.5051 11.6199 3.56944 -14.661 12.0514 3.70576 -14.8017 12.4673 3.82123 -14.9271 12.8664 3.91579 -15.0373 13.2478 3.98946 -15.1319 13.6105 4.04228 -15.2109 13.9538 4.07436 -15.2739 14.2767 4.08585 -15.3206 15.0158 4.33995 -15.518 16.1391 4.8293 -15.9251 17.1957 5.28558 -16.3951 18.1815 5.70572 -16.9296 19.0925 6.08706 -17.5299 19.9249 6.4273 -18.1979 20.6748 6.72451 -18.9358 21.3382 6.97707 -19.7458 21.9115 7.18369 -20.6308 22.3909 7.34338 -21.594 22.7727 7.45541 -22.6392 23.0533 7.51936 -23.7707 23.2289 7.535 -24.9936 23.2957 7.50236 -26.314 23.2499 7.42167 -27.739 7.91682 2.43213 -13.1719 8.41456 2.7308 -13.4281 8.90428 3.01023 -13.6671 9.38472 3.27024 -13.889 9.8547 3.51065 -14.0939 10.313 3.73125 -14.282 10.7586 3.93184 -14.4534 11.1902 4.11222 -14.6081 11.6069 4.27222 -14.7462 12.0076 4.41172 -14.8675 12.3913 4.53061 -14.972 12.7571 4.62884 -15.0596 13.1042 4.7064 -15.13 13.4316 4.76334 -15.1831 13.7388 4.79978 -15.2185 14.4746 5.10397 -15.4081 15.606 5.66396 -15.8112 16.6691 6.18489 -16.2764 17.6599 6.66375 -16.8053 18.5742 7.09791 -17.3997 19.4083 7.48506 -18.0615 20.1583 7.82324 -18.7931 20.8204 8.11078 -19.597 21.3908 8.34631 -20.4763 21.8658 8.52872 -21.4346 22.2419 8.6572 -22.476 22.5154 8.73115 -23.6052 22.6825 8.7502 -24.8279 22.7397 8.71417 -26.1506 22.683 8.62307 -27.581 7.57684 2.82344 -13.105 8.06336 3.13997 -13.3685 8.54119 3.43815 -13.6133 9.00912 3.71771 -13.8398 9.46601 3.97836 -14.048 9.91073 4.21981 -14.2381 10.3422 4.44178 -14.4102 10.7594 4.64401 -14.5642 11.1612 4.82626 -14.7003 11.5467 4.98833 -14.8184 11.915 5.13007 -14.9183 12.2653 5.25136 -15.0001 12.5966 5.35215 -15.0634 12.9082 5.43244 -15.1082 13.1995 5.49228 -15.1342 13.9278 5.84387 -15.3168 15.0592 6.47123 -15.7157 16.1211 7.