<?xml version="1.0"?> 
<VTKFile type="StructuredGrid" version="0.1"> 
<StructuredGrid WholeExtent="0 29 0 29 0 29"> 
<Piece Extent="0 29 0 29 0 29"> 
<PointData>
<DataArray type="Float32" Name="efield" format="ascii" NumberOfComponents="3"> 
0 0 17.2555 0 0 17.6536 0 0 18.0231 0 0 18.3643 0 0 18.677 0 0 18.9613 0 0 19.2172 0 0 19.4446 0 0 19.6436 0 0 19.8142 0 0 19.9563 0 0 20.07 0 0 20.1553 0 0 20.2122 0 0 20.2406 0 0 20.2406 0 0 20.2122 0 0 20.1553 0 0 20.07 0 0 19.9563 0 0 19.8142 0 0 19.6436 0 0 19.4446 0 0 19.2172 0 0 18.9613 0 0 18.677 0 0 18.3643 0 0 18.0231 0 0 17.6536 0 0 17.2555 0 0 17.6536 0 0 18.057 0 0 18.4317 0 0 18.7775 0 0 19.0945 0 0 19.3827 0 0 19.6421 0 0 19.8726 0 0 20.0744 0 0 20.2473 0 0 20.3914 0 0 20.5066 0 0 20.5931 0 0 20.6507 0 0 20.6796 0 0 20.6796 0 0 20.6507 0 0 20.5931 0 0 20.5066 0 0 20.3914 0 0 20.2473 0 0 20.0744 0 0 19.8726 0 0 19.6421 0 0 19.3827 0 0 19.0945 0 0 18.7775 0 0 18.4317 0 0 18.057 0 0 17.6536 0 0 18.0231 0 0 18.4317 0 0 18.811 0 0 19.1612 0 0 19.4822 0 0 19.774 0 0 20.0366 0 0 20.2701 0 0 20.4744 0 0 20.6494 0 0 20.7953 0 0 20.9121 0 0 20.9996 0 0 21.058 0 0 21.0872 0 0 21.0872 0 0 21.058 0 0 20.9996 0 0 20.9121 0 0 20.7953 0 0 20.6494 0 0 20.4744 0 0 20.2701 0 0 20.0366 0 0 19.774 0 0 19.4822 0 0 19.1612 0 0 18.811 0 0 18.4317 0 0 18.0231 0 0 18.3643 0 0 18.7775 0 0 19.1612 0 0 19.5154 0 0 19.84 0 0 20.1352 0 0 20.4008 0 0 20.637 0 0 20.8436 0 0 21.0207 0 0 21.1682 0 0 21.2863 0 0 21.3748 0 0 21.4339 0 0 21.4634 0 0 21.4634 0 0 21.4339 0 0 21.3748 0 0 21.2863 0 0 21.1682 0 0 21.0207 0 0 20.8436 0 0 20.637 0 0 20.4008 0 0 20.1352 0 0 19.84 0 0 19.5154 0 0 19.1612 0 0 18.7775 0 0 18.3643 0 0 18.677 0 0 19.0945 0 0 19.4822 0 0 19.84 0 0 20.1681 0 0 20.4663 0 0 20.7347 0 0 20.9733 0 0 21.182 0 0 21.361 0 0 21.5101 0 0 21.6293 0 0 21.7188 0 0 21.7785 0 0 21.8083 0 0 21.8083 0 0 21.7785 0 0 21.7188 0 0 21.6293 0 0 21.5101 0 0 21.361 0 0 21.182 0 0 20.9733 0 0 20.7347 0 0 20.4663 0 0 20.1681 0 0 19.84 0 0 19.4822 0 0 19.0945 0 0 18.677 0 0 18.9613 0 0 19.3827 0 0 19.774 0 0 20.1352 0 0 20.4663 0 0 20.7673 0 0 21.0382 0 0 21.279 0 0 21.4897 0 0 21.6703 0 0 21.8208 0 0 21.9412 0 0 22.0315 0 0 22.0917 0 0 22.1218 0 0 22.1218 0 0 22.0917 0 0 22.0315 0 0 21.9412 0 0 21.8208 0 0 21.6703 0 0 21.4897 0 0 21.279 0 0 21.0382 0 0 20.7673 0 0 20.4663 0 0 20.1352 0 0 19.774 0 0 19.3827 0 0 18.9613 0 0 19.2172 0 0 19.6421 0 0 20.0366 0 0 20.4008 0 0 20.7347 0 0 21.0382 0 0 21.3114 0 0 21.5542 0 0 21.7666 0 0 21.9487 0 0 22.1005 0 0 22.2219 0 0 22.3129 0 0 22.3736 0 0 22.404 0 0 22.404 0 0 22.3736 0 0 22.3129 0 0 22.2219 0 0 22.1005 0 0 21.9487 0 0 21.7666 0 0 21.5542 0 0 21.3114 0 0 21.0382 0 0 20.7347 0 0 20.4008 0 0 20.0366 0 0 19.6421 0 0 19.2172 0 0 19.4446 0 0 19.8726 0 0 20.2701 0 0 20.637 0 0 20.9733 0 0 21.279 0 0 21.5542 0 0 21.7988 0 0 22.0128 0 0 22.1962 0 0 22.3491 0 0 22.4714 0 0 22.5631 0 0 22.6242 0 0 22.6548 0 0 22.6548 0 0 22.6242 0 0 22.5631 0 0 22.4714 0 0 22.3491 0 0 22.1962 0 0 22.0128 0 0 21.7988 0 0 21.5542 0 0 21.279 0 0 20.9733 0 0 20.637 0 0 20.2701 0 0 19.8726 0 0 19.4446 0 0 19.6436 0 0 20.0744 0 0 20.4744 0 0 20.8436 0 0 21.182 0 0 21.4897 0 0 21.7666 0 0 22.0128 0 0 22.2281 0 0 22.4128 0 0 22.5666 0 0 22.6897 0 0 22.782 0 0 22.8435 0 0 22.8743 0 0 22.8743 0 0 22.8435 0 0 22.782 0 0 22.6897 0 0 22.5666 0 0 22.4128 0 0 22.2281 0 0 22.0128 0 0 21.7666 0 0 21.4897 0 0 21.182 0 0 20.8436 0 0 20.4744 0 0 20.0744 0 0 19.6436 0 0 19.8142 0 0 20.2473 0 0 20.6494 0 0 21.0207 0 0 21.361 0 0 21.6703 0 0 21.9487 0 0 22.1962 0 0 22.4128 0 0 22.5984 0 0 22.753 0 0 22.8768 0 0 22.9696 0 0 23.0315 0 0 23.0624 0 0 23.0624 0 0 23.0315 0 0 22.9696 0 0 22.8768 0 0 22.753 0 0 22.5984 0 0 22.4128 0 0 22.1962 0 0 21.9487 0 0 21.6703 0 0 21.361 0 0 21.0207 0 0 20.6494 0 0 20.2473 0 0 19.8142 0 0 19.9563 0 0 20.3914 0 0 20.7953 0 0 21.1682 0 0 21.5101 0 0 21.8208 0 0 22.1005 0 0 22.3491 0 0 22.5666 0 0 22.753 0 0 22.9084 0 0 23.0327 0 0 23.1259 0 0 23.1881 0 0 23.2192 0 0 23.2192 0 0 23.1881 0 0 23.1259 0 0 23.0327 0 0 22.9084 0 0 22.753 0 0 22.5666 0 0 22.3491 0 0 22.1005 0 0 21.8208 0 0 21.5101 0 0 21.1682 0 0 20.7953 0 0 20.3914 0 0 19.9563 0 0 20.07 0 0 20.5066 0 0 20.9121 0 0 21.2863 0 0 21.6293 0 0 21.9412 0 0 22.2219 0 0 22.4714 0 0 22.6897 0 0 22.8768 0 0 23.0327 0 0 23.1575 0 0 23.251 0 0 23.3134 0 0 23.3446 0 0 23.3446 0 0 23.3134 0 0 23.251 0 0 23.1575 0 0 23.0327 0 0 22.8768 0 0 22.6897 0 0 22.4714 0 0 22.2219 0 0 21.9412 0 0 21.6293 0 0 21.2863 0 0 20.9121 0 0 20.5066 0 0 20.07 0 0 20.1553 0 0 20.5931 0 0 20.9996 0 0 21.3748 0 0 21.7188 0 0 22.0315 0 0 22.3129 0 0 22.5631 0 0 22.782 0 0 22.9696 0 0 23.1259 0 0 23.251 0 0 23.3448 0 0 23.4074 0 0 23.4386 0 0 23.4386 0 0 23.4074 0 0 23.3448 0 0 23.251 0 0 23.1259 0 0 22.9696 0 0 22.782 0 0 22.5631 0 0 22.3129 0 0 22.0315 0 0 21.7188 0 0 21.3748 0 0 20.9996 0 0 20.5931 0 0 20.1553 0 0 20.2122 0 0 20.6507 0 0 21.058 0 0 21.4339 0 0 21.7785 0 0 22.0917 0 0 22.3736 0 0 22.6242 0 0 22.8435 0 0 23.0315 0 0 23.1881 0 0 23.3134 0 0 23.4074 0 0 23.47 0 0 23.5013 0 0 23.5013 0 0 23.47 0 0 23.4074 0 0 23.3134 0 0 23.1881 0 0 23.0315 0 0 22.8435 0 0 22.6242 0 0 22.3736 0 0 22.0917 0 0 21.7785 0 0 21.4339 0 0 21.058 0 0 20.6507 0 0 20.2122 0 0 20.2406 0 0 20.6796 0 0 21.0872 0 0 21.4634 0 0 21.8083 0 0 22.1218 0 0 22.404 0 0 22.6548 0 0 22.8743 0 0 23.0624 0 0 23.2192 0 0 23.3446 0 0 23.4386 0 0 23.5013 0 0 23.5327 0 0 23.5327 0 0 23.5013 0 0 23.4386 0 0 23.3446 0 0 23.2192 0 0 23.0624 0 0 22.8743 0 0 22.6548 0 0 22.404 0 0 22.1218 0 0 21.8083 0 0 21.4634 0 0 21.0872 0 0 20.6796 0 0 20.2406 0 0 20.2406 0 0 20.6796 0 0 21.0872 0 0 21.4634 0 0 21.8083 0 0 22.1218 0 0 22.404 0 0 22.6548 0 0 22.8743 0 0 23.0624 0 0 23.2192 0 0 23.3446 0 0 23.4386 0 0 23.5013 0 0 23.5327 0 0 23.5327 0 0 23.5013 0 0 23.4386 0 0 23.3446 0 0 23.2192 0 0 23.0624 0 0 22.8743 0 0 22.6548 0 0 22.404 0 0 22.1218 0 0 21.8083 0 0 21.4634 0 0 21.0872 0 0 20.6796 0 0 20.2406 0 0 20.2122 0 0 20.6507 0 0 21.058 0 0 21.4339 0 0 21.7785 0 0 22.0917 0 0 22.3736 0 0 22.6242 0 0 22.8435 0 0 23.0315 0 0 23.1881 0 0 23.3134 0 0 23.4074 0 0 23.47 0 0 23.5013 0 0 23.5013 0 0 23.47 0 0 23.4074 0 0 23.3134 0 0 23.1881 0 0 23.0315 0 0 22.8435 0 0 22.6242 0 0 22.3736 0 0 22.0917 0 0 21.7785 0 0 21.4339 0 0 21.058 0 0 20.6507 0 0 20.2122 0 0 20.1553 0 0 20.5931 0 0 20.9996 0 0 21.3748 0 0 21.7188 0 0 22.0315 0 0 22.3129 0 0 22.5631 0 0 22.782 0 0 22.9696 0 0 23.1259 0 0 23.251 0 0 23.3448 0 0 23.4074 0 0 23.4386 0 0 23.4386 0 0 23.4074 0 0 23.3448 0 0 23.251 0 0 23.1259 0 0 22.9696 0 0 22.782 0 0 22.5631 0 0 22.3129 0 0 22.0315 0 0 21.7188 0 0 21.3748 0 0 20.9996 0 0 20.5931 0 0 20.1553 0 0 20.07 0 0 20.5066 0 0 20.9121 0 0 21.2863 0 0 21.6293 0 0 21.9412 0 0 22.2219 0 0 22.4714 0 0 22.6897 0 0 22.8768 0 0 23.0327 0 0 23.1575 0 0 23.251 0 0 23.3134 0 0 23.3446 0 0 23.3446 0 0 23.3134 0 0 23.251 0 0 23.1575 0 0 23.0327 0 0 22.8768 0 0 22.6897 0 0 22.4714 0 0 22.2219 0 0 21.9412 0 0 21.6293 0 0 21.2863 0 0 20.9121 0 0 20.5066 0 0 20.07 0 0 19.9563 0 0 20.3914 0 0 20.7953 0 0 21.1682 0 0 21.5101 0 0 21.8208 0 0 22.1005 0 0 22.3491 0 0 22.5666 0 0 22.753 0 0 22.9084 0 0 23.0327 0 0 23.1259 0 0 23.1881 0 0 23.2192 0 0 23.2192 0 0 23.1881 0 0 23.1259 0 0 23.0327 0 0 22.9084 0 0 22.753 0 0 22.5666 0 0 22.3491 0 0 22.1005 0 0 21.8208 0 0 21.5101 0 0 21.1682 0 0 20.7953 0 0 20.3914 0 0 19.9563 0 0 19.8142 0 0 20.2473 0 0 20.6494 0 0 21.0207 0 0 21.361 0 0 21.6703 0 0 21.9487 0 0 22.1962 0 0 22.4128 0 0 22.5984 0 0 22.753 0 0 22.8768 0 0 22.9696 0 0 23.0315 0 0 23.0624 0 0 23.0624 0 0 23.0315 0 0 22.9696 0 0 22.8768 0 0 22.753 0 0 22.5984 0 0 22.4128 0 0 22.1962 0 0 21.9487 0 0 21.6703 0 0 21.361 0 0 21.0207 0 0 20.6494 0 0 20.2473 0 0 19.8142 0 0 19.6436 0 0 20.0744 0 0 20.4744 0 0 20.8436 0 0 21.182 0 0 21.4897 0 0 21.7666 0 0 22.0128 0 0 22.2281 0 0 22.4128 0 0 22.5666 0 0 22.6897 0 0 22.782 0 0 22.8435 0 0 22.8743 0 0 22.8743 0 0 22.8435 0 0 22.782 0 0 22.6897 0 0 22.5666 0 0 22.4128 0 0 22.2281 0 0 22.0128 0 0 21.7666 0 0 21.4897 0 0 21.182 0 0 20.8436 0 0 20.4744 0 0 20.0744 0 0 19.6436 0 0 19.4446 0 0 19.8726 0 0 20.2701 0 0 20.637 0 0 20.9733 0 0 21.279 0 0 21.5542 0 0 21.7988 0 0 22.0128 0 0 22.1962 0 0 22.3491 0 0 22.4714 0 0 22.5631 0 0 22.6242 0 0 22.6548 0 0 22.6548 0 0 22.6242 0 0 22.5631 0 0 22.4714 0 0 22.3491 0 0 22.1962 0 0 22.0128 0 0 21.7988 0 0 21.5542 0 0 21.279 0 0 20.9733 0 0 20.637 0 0 20.2701 0 0 19.8726 0 0 19.4446 0 0 19.2172 0 0 19.6421 0 0 20.0366 0 0 20.4008 0 0 20.7347 0 0 21.0382 0 0 21.3114 0 0 21.5542 0 0 21.7666 0 0 21.9487 0 0 22.1005 0 0 22.2219 0 0 22.3129 0 0 22.3736 0 0 22.404 0 0 22.404 0 0 22.3736 0 0 22.3129 0 0 22.2219 0 0 22.1005 0 0 21.9487 0 0 21.7666 0 0 21.5542 0 0 21.3114 0 0 21.0382 0 0 20.7347 0 0 20.4008 0 0 20.0366 0 0 19.6421 0 0 19.2172 0 0 18.9613 0 0 19.3827 0 0 19.774 0 0 20.1352 0 0 20.4663 0 0 20.7673 0 0 21.0382 0 0 21.279 0 0 21.4897 0 0 21.6703 0 0 21.8208 0 0 21.9412 0 0 22.0315 0 0 22.0917 0 0 22.1218 0 0 22.1218 0 0 22.0917 0 0 22.0315 0 0 21.9412 0 0 21.8208 0 0 21.6703 0 0 21.4897 0 0 21.279 0 0 21.0382 0 0 20.7673 0 0 20.4663 0 0 20.1352 0 0 19.774 0 0 19.3827 0 0 18.9613 0 0 18.677 0 0 19.0945 0 0 19.4822 0 0 19.84 0 0 20.1681 0 0 20.4663 0 0 20.7347 0 0 20.9733 0 0 21.182 0 0 21.361 0 0 21.5101 0 0 21.6293 0 0 21.7188 0 0 21.7785 0 0 21.8083 0 0 21.8083 0 0 21.7785 0 0 21.7188 0 0 21.6293 0 0 21.5101 0 0 21.361 0 0 21.182 0 0 20.9733 0 0 20.7347 0 0 20.4663 0 0 20.1681 0 0 19.84 0 0 19.4822 0 0 19.0945 0 0 18.677 0 0 18.3643 0 0 18.7775 0 0 19.1612 0 0 19.5154 0 0 19.84 0 0 20.1352 0 0 20.4008 0 0 20.637 0 0 20.8436 0 0 21.0207 0 0 21.1682 0 0 21.2863 0 0 21.3748 0 0 21.4339 0 0 21.4634 0 0 21.4634 0 0 21.4339 0 0 21.3748 0 0 21.2863 0 0 21.1682 0 0 21.0207 0 0 20.8436 0 0 20.637 0 0 20.4008 0 0 20.1352 0 0 19.84 0 0 19.5154 0 0 19.1612 0 0 18.7775 0 0 18.3643 0 0 18.0231 0 0 18.4317 0 0 18.811 0 0 19.1612 0 0 19.4822 0 0 19.774 0 0 20.0366 0 0 20.2701 0 0 20.4744 0 0 20.6494 0 0 20.7953 0 0 20.9121 0 0 20.9996 0 0 21.058 0 0 21.0872 0 0 21.0872 0 0 21.058 0 0 20.9996 0 0 20.9121 0 0 20.7953 0 0 20.6494 0 0 20.4744 0 0 20.2701 0 0 20.0366 0 0 19.774 0 0 19.4822 0 0 19.1612 0 0 18.811 0 0 18.4317 0 0 18.0231 0 0 17.6536 0 0 18.057 0 0 18.4317 0 0 18.7775 0 0 19.0945 0 0 19.3827 0 0 19.6421 0 0 19.8726 0 0 20.0744 0 0 20.2473 0 0 20.3914 0 0 20.5066 0 0 20.5931 0 0 20.6507 0 0 20.6796 0 0 20.6796 0 0 20.6507 0 0 20.5931 0 0 20.5066 0 0 20.3914 0 0 20.2473 0 0 20.0744 0 0 19.8726 0 0 19.6421 0 0 19.3827 0 0 19.0945 0 0 18.7775 0 0 18.4317 0 0 18.057 0 0 17.6536 0 0 17.2555 0 0 17.6536 0 0 18.0231 0 0 18.3643 0 0 18.677 0 0 18.9613 0 0 19.2172 0 0 19.4446 0 0 19.6436 0 0 19.8142 0 0 19.9563 0 0 20.07 0 0 20.1553 0 0 20.2122 0 0 20.2406 0 0 20.2406 0 0 20.2122 0 0 20.1553 0 0 20.07 0 0 19.9563 0 0 19.8142 0 0 19.6436 0 0 19.4446 0 0 19.2172 0 0 18.9613 0 0 18.677 0 0 18.3643 0 0 18.0231 0 0 17.6536 0 0 17.2555 -5.08522e-12 0.0719906 17.3335 -0.00287395 0.0698997 17.7327 -0.00571993 0.0677808 18.1035 -0.00853794 0.0656339 18.4457 -0.011328 0.0634591 18.7594 -0.0140901 0.0612563 19.0445 -0.0168242 0.0590256 19.3012 -0.0195304 0.0567669 19.5293 -0.0222085 0.0544802 19.729 -0.0248588 0.0521655 19.9001 -0.027481 0.0498229 20.0427 -0.0300753 0.0474524 20.1567 -0.0326417 0.0450538 20.2423 -0.03518 0.0426273 20.2993 -0.0376904 0.0401729 20.3278 -0.0401729 0.0376904 20.3278 -0.0426273 0.03518 20.2993 -0.0450538 0.0326417 20.2423 -0.0474524 0.0300753 20.1567 -0.0498229 0.027481 20.0427 -0.0521655 0.0248588 19.9001 -0.0544802 0.0222085 19.729 -0.0567669 0.0195304 19.5293 -0.0590256 0.0168242 19.3012 -0.0612563 0.0140901 19.0445 -0.0634591 0.011328 18.7594 -0.0656339 0.00853794 18.4457 -0.0677808 0.00571993 18.1035 -0.0698997 0.00287395 17.7327 -0.0719906 6.67998e-12 17.3335 0.00287395 0.0698997 17.7327 -5.05348e-12 0.0677547 18.1374 -0.00284791 0.0655838 18.5133 -0.00566978 0.0633868 18.8602 -0.00846562 0.0611637 19.1782 -0.0112354 0.0589147 19.4672 -0.0139792 0.0566396 19.7274 -0.0166969 0.0543384 19.9587 -0.0193886 0.0520112 20.161 -0.0220543 0.049658 20.3345 -0.0246939 0.0472788 20.479 -0.0273075 0.0448735 20.5947 -0.029895 0.0424422 20.6814 -0.0324565 0.0399848 20.7392 -0.034992 0.0375014 20.7681 -0.0375014 0.034992 20.7681 -0.0399848 0.0324565 20.7392 -0.0424422 0.029895 20.6814 -0.0448735 0.0273075 20.5947 -0.0472788 0.0246939 20.479 -0.049658 0.0220543 20.3345 -0.0520112 0.0193886 20.161 -0.0543384 0.0166969 19.9587 -0.0566396 0.0139792 19.7274 -0.0589147 0.0112354 19.4672 -0.0611637 0.00846562 19.1782 -0.0633868 0.00566978 18.8602 -0.0655838 0.00284791 18.5133 -0.0677547 6.95474e-12 18.1374 -0.0698997 -0.00287395 17.7327 0.00571993 0.0677808 18.1035 0.00284791 0.0655838 18.5133 -5.04447e-12 0.0633627 18.8938 -0.0028238 0.0611175 19.245 -0.0056235 0.0588481 19.567 -0.00839908 0.0565547 19.8597 -0.0111506 0.0542372 20.1232 -0.0138779 0.0518955 20.3573 -0.0165812 0.0495298 20.5622 -0.0192603 0.0471399 20.7379 -0.0219154 0.044726 20.8842 -0.0245463 0.0422879 21.0013 -0.0271532 0.0398257 21.0891 -0.0297359 0.0373394 21.1477 -0.0322945 0.034829 21.1769 -0.034829 0.0322945 21.1769 -0.0373394 0.0297359 21.1477 -0.0398257 0.0271532 21.0891 -0.0422879 0.0245463 21.0013 -0.044726 0.0219154 20.8842 -0.0471399 0.0192603 20.7379 -0.0495298 0.0165812 20.5622 -0.0518955 0.0138779 20.3573 -0.0542372 0.0111506 20.1232 -0.0565547 0.00839908 19.8597 -0.0588481 0.0056235 19.567 -0.0611175 0.0028238 19.245 -0.0633627 7.19013e-12 18.8938 -0.0655838 -0.00284791 18.5133 -0.0677808 -0.00571993 18.1035 0.00853794 0.0656339 18.4457 0.00566978 0.0633868 18.8602 0.0028238 0.0611175 19.245 -5.05806e-12 0.058826 19.6003 -0.00280162 0.0565123 19.926 -0.00558107 0.0541764 20.222 -0.00833833 0.0518184 20.4885 -0.0110734 0.0494382 20.7254 -0.0137863 0.0470358 20.9326 -0.016477 0.0446112 21.1102 -0.0191456 0.0421644 21.2583 -0.021792 0.0396955 21.3767 -0.0244161 0.0372044 21.4655 -0.0270182 0.0346911 21.5247 -0.029598 0.0321556 21.5543 -0.0321556 0.029598 21.5543 -0.0346911 0.0270182 21.5247 -0.0372044 0.0244161 21.4655 -0.0396955 0.021792 21.3767 -0.0421644 0.0191456 21.2583 -0.0446112 0.016477 21.1102 -0.0470358 0.0137863 20.9326 -0.0494382 0.0110734 20.7254 -0.0518184 0.00833833 20.4885 -0.0541764 0.00558107 20.222 -0.0565123 0.00280162 19.926 -0.058826 7.38651e-12 19.6003 -0.0611175 -0.0028238 19.245 -0.0633868 -0.00566978 18.8602 -0.0656339 -0.00853794 18.4457 0.011328 0.0634591 18.7594 0.00846562 0.0611637 19.1782 0.0056235 0.0588481 19.567 0.00280162 0.0565123 19.926 -5.09408e-12 0.0541562 20.255 -0.00278137 0.0517798 20.5542 -0.00554249 0.0493832 20.8234 -0.00828336 0.0469663 21.0627 -0.011004 0.0445292 21.2721 -0.0137044 0.0420719 21.4516 -0.0163845 0.0395943 21.6011 -0.0190443 0.0370964 21.7208 -0.021684 0.0345783 21.8105 -0.0243033 0.0320399 21.8703 -0.0269024 0.0294813 21.9003 -0.0294813 0.0269024 21.9003 -0.0320399 0.0243033 21.8703 -0.0345783 0.021684 21.8105 -0.0370964 0.0190443 21.7208 -0.0395943 0.0163845 21.6011 -0.0420719 0.0137044 21.4516 -0.0445292 0.011004 21.2721 -0.0469663 0.00828336 21.0627 -0.0493832 0.00554249 20.8234 -0.0517798 0.00278137 20.5542 -0.0541562 7.54425e-12 20.255 -0.0565123 -0.00280162 19.926 -0.0588481 -0.0056235 19.567 -0.0611637 -0.00846562 19.1782 -0.0634591 -0.011328 18.7594 0.0140901 0.0612563 19.0445 0.0112354 0.0589147 19.4672 0.00839908 0.0565547 19.8597 0.00558107 0.0541764 20.222 0.00278137 0.0517798 20.5542 -5.15236e-12 0.0493649 20.8561 -0.00276305 0.0469316 21.1278 -0.00550778 0.0444801 21.3694 -0.00823418 0.0420102 21.5807 -0.0109423 0.0395219 21.7619 -0.013632 0.0370154 21.9128 -0.0163035 0.0344905 22.0336 -0.0189566 0.0319473 22.1242 -0.0215914 0.0293858 22.1846 -0.0242079 0.026806 22.2147 -0.026806 0.0242079 22.2147 -0.0293858 0.0215914 22.1846 -0.0319473 0.0189566 22.1242 -0.0344905 0.0163035 22.0336 -0.0370154 0.013632 21.9128 -0.0395219 0.0109423 21.7619 -0.0420102 0.00823418 21.5807 -0.0444801 0.00550778 21.3694 -0.0469316 0.00276305 21.1278 -0.0493649 7.6637e-12 20.8561 -0.0517798 -0.00278137 20.5542 -0.0541764 -0.00558107 20.222 -0.0565547 -0.00839908 19.8597 -0.0589147 -0.0112354 19.4672 -0.0612563 -0.0140901 19.0445 0.0168242 0.0590256 19.3012 0.0139792 0.0566396 19.7274 0.0111506 0.0542372 20.1232 0.00833833 0.0518184 20.4885 0.00554249 0.0493832 20.8234 0.00276305 0.0469316 21.1278 -5.23277e-12 0.0444637 21.4018 -0.00274666 0.0419793 21.6454 -0.00547692 0.0394785 21.8585 -0.00819079 0.0369614 22.0411 -0.0108883 0.0344279 22.1933 -0.0135693 0.0318779 22.3151 -0.016234 0.0293116 22.4064 -0.0188823 0.0267289 22.4673 -0.0215142 0.0241297 22.4978 -0.0241297 0.0215142 22.4978 -0.0267289 0.0188823 22.4673 -0.0293116 0.016234 22.4064 -0.0318779 0.0135693 22.3151 -0.0344279 0.0108883 22.1933 -0.0369614 0.00819079 22.0411 -0.0394785 0.00547692 21.8585 -0.0419793 0.00274666 21.6454 -0.0444637 7.74522e-12 21.4018 -0.0469316 -0.00276305 21.1278 -0.0493832 -0.00554249 20.8234 -0.0518184 -0.00833833 20.4885 -0.0542372 -0.0111506 20.1232 -0.0566396 -0.0139792 19.7274 -0.0590256 -0.0168242 19.3012 0.0195304 0.0567669 19.5293 0.0166969 0.0543384 19.9587 0.0138779 0.0518955 20.3573 0.0110734 0.0494382 20.7254 0.00828336 0.0469663 21.0627 0.00550778 0.0444801 21.3694 0.00274666 0.0419793 21.6454 -5.33513e-12 0.0394641 21.8907 -0.00273219 0.0369344 22.1054 -0.00544992 0.0343902 22.2894 -0.00815318 0.0318316 22.4427 -0.010842 0.0292585 22.5654 -0.0135163 0.026671 22.6574 -0.0161762 0.024069 22.7187 -0.0188216 0.0214525 22.7494 -0.0214525 0.0188216 22.7494 -0.024069 0.0161762 22.7187 -0.026671 0.0135163 22.6574 -0.0292585 0.010842 22.5654 -0.0318316 0.00815318 22.4427 -0.0343902 0.00544992 22.2894 -0.0369344 0.00273219 22.1054 -0.0394641 7.78917e-12 21.8907 -0.0419793 -0.00274666 21.6454 -0.0444801 -0.00550778 21.3694 -0.0469663 -0.00828336 21.0627 -0.0494382 -0.0110734 20.7254 -0.0518955 -0.0138779 20.3573 -0.0543384 -0.0166969 19.9587 -0.0567669 -0.0195304 19.5293 0.0222085 0.0544802 19.729 0.0193886 0.0520112 20.161 0.0165812 0.0495298 20.5622 0.0137863 0.0470358 20.9326 0.011004 0.0445292 21.2721 0.00823418 0.0420102 21.5807 0.00547692 0.0394785 21.8585 0.00273219 0.0369344 22.1054 -5.45929e-12 0.0343777 22.3214 -0.00271966 0.0318085 22.5066 -0.00542678 0.0292267 22.6609 -0.00812136 0.0266324 22.7843 -0.0108034 0.0240256 22.8769 -0.0134729 0.0214062 22.9386 -0.0161299 0.0187743 22.9695 -0.0187743 0.0161299 22.9695 -0.0214062 0.0134729 22.9386 -0.0240256 0.0108034 22.8769 -0.0266324 0.00812136 22.7843 -0.0292267 0.00542678 22.6609 -0.0318085 0.00271966 22.5066 -0.0343777 7.7959e-12 22.3214 -0.0369344 -0.00273219 22.1054 -0.0394785 -0.00547692 21.8585 -0.0420102 -0.00823418 21.5807 -0.0445292 -0.011004 21.2721 -0.0470358 -0.0137863 20.9326 -0.0495298 -0.0165812 20.5622 -0.0520112 -0.0193886 20.161 -0.0544802 -0.0222085 19.729 0.0248588 0.0521655 19.9001 0.0220543 0.049658 20.3345 0.0192603 0.0471399 20.7379 0.016477 0.0446112 21.1102 0.0137044 0.0420719 21.4516 0.0109423 0.0395219 21.7619 0.00819079 0.0369614 22.0411 0.00544992 0.0343902 22.2894 0.00271966 0.0318085 22.5066 -5.60509e-12 0.0292161 22.6928 -0.00270905 0.0266131 22.8479 -0.00540749 0.0239996 22.972 -0.00809532 0.0213754 23.0651 -0.0107725 0.0187406 23.1272 -0.0134392 0.0160952 23.1582 -0.0160952 0.0134392 23.1582 -0.0187406 0.0107725 23.1272 -0.0213754 0.00809532 23.0651 -0.0239996 0.00540749 22.972 -0.0266131 0.00270905 22.8479 -0.0292161 7.76578e-12 22.6928 -0.0318085 -0.00271966 22.5066 -0.0343902 -0.00544992 22.2894 -0.0369614 -0.00819079 22.0411 -0.0395219 -0.0109423 21.7619 -0.0420719 -0.0137044 21.4516 -0.0446112 -0.016477 21.1102 -0.0471399 -0.0192603 20.7379 -0.049658 -0.0220543 20.3345 -0.0521655 -0.0248588 19.9001 0.027481 0.0498229 20.0427 0.0246939 0.0472788 20.479 0.0219154 0.044726 20.8842 0.0191456 0.0421644 21.2583 0.0163845 0.0395943 21.6011 0.013632 0.0370154 21.9128 0.0108883 0.0344279 22.1933 0.00815318 0.0318316 22.4427 0.00542678 0.0292267 22.6609 0.00270905 0.0266131 22.8479 -5.77238e-12 0.0239909 23.0037 -0.00270037 0.0213599 23.1284 -0.00539206 0.0187203 23.2219 -0.00807507 0.016072 23.2843 -0.0107494 0.0134151 23.3154 -0.0134151 0.0107494 23.3154 -0.016072 0.00807507 23.2843 -0.0187203 0.00539206 23.2219 -0.0213599 0.00270037 23.1284 -0.0239909 7.69918e-12 23.0037 -0.0266131 -0.00270905 22.8479 -0.0292267 -0.00542678 22.6609 -0.0318316 -0.00815318 22.4427 -0.0344279 -0.0108883 22.1933 -0.0370154 -0.013632 21.9128 -0.0395943 -0.0163845 21.6011 -0.0421644 -0.0191456 21.2583 -0.044726 -0.0219154 20.8842 -0.0472788 -0.0246939 20.479 -0.0498229 -0.027481 20.0427 0.0300753 0.0474524 20.1567 0.0273075 0.0448735 20.5947 0.0245463 0.0422879 21.0013 0.021792 0.0396955 21.3767 0.0190443 0.0370964 21.7208 0.0163035 0.0344905 22.0336 0.0135693 0.0318779 22.3151 0.010842 0.0292585 22.5654 0.00812136 0.0266324 22.7843 0.00540749 0.0239996 22.972 0.00270037 0.0213599 23.1284 -5.961e-12 0.0187136 23.2535 -0.00269362 0.0160605 23.3474 -0.00538049 0.0134006 23.41 -0.00806061 0.010734 23.4412 -0.010734 0.00806061 23.4412 -0.0134006 0.00538049 23.41 -0.0160605 0.00269362 23.3474 -0.0187136 7.59644e-12 23.2535 -0.0213599 -0.00270037 23.1284 -0.0239996 -0.00540749 22.972 -0.0266324 -0.00812136 22.7843 -0.0292585 -0.010842 22.5654 -0.0318779 -0.0135693 22.3151 -0.0344905 -0.0163035 22.0336 -0.0370964 -0.0190443 21.7208 -0.0396955 -0.021792 21.3767 -0.0422879 -0.0245463 21.0013 -0.0448735 -0.0273075 20.5947 -0.0474524 -0.0300753 20.1567 0.0326417 0.0450538 20.2423 0.029895 0.0424422 20.6814 0.0271532 0.0398257 21.0891 0.0244161 0.0372044 21.4655 0.021684 0.0345783 21.8105 0.0189566 0.0319473 22.1242 0.016234 0.0293116 22.4064 0.0135163 0.026671 22.6574 0.0108034 0.0240256 22.8769 0.00809532 0.0213754 23.0651 0.00539206 0.0187203 23.2219 0.00269362 0.0160605 23.3474 -6.1708e-12 0.0133958 23.4415 -0.0026888 0.0107263 23.5042 -0.00537277 0.00805193 23.5356 -0.00805193 0.00537277 23.5356 -0.0107263 0.0026888 23.5042 -0.0133958 7.45793e-12 23.4415 -0.0160605 -0.00269362 23.3474 -0.0187203 -0.00539206 23.2219 -0.0213754 -0.00809532 23.0651 -0.0240256 -0.0108034 22.8769 -0.026671 -0.0135163 22.6574 -0.0293116 -0.016234 22.4064 -0.0319473 -0.0189566 22.1242 -0.0345783 -0.021684 21.8105 -0.0372044 -0.0244161 21.4655 -0.0398257 -0.0271532 21.0891 -0.0424422 -0.029895 20.6814 -0.0450538 -0.0326417 20.2423 0.03518 0.0426273 20.2993 0.0324565 0.0399848 20.7392 0.0297359 0.0373394 21.1477 0.0270182 0.0346911 21.5247 0.0243033 0.0320399 21.8703 0.0215914 0.0293858 22.1846 0.0188823 0.0267289 22.4673 0.0161762 0.024069 22.7187 0.0134729 0.0214062 22.9386 0.0107725 0.0187406 23.1272 0.00807507 0.016072 23.2843 0.00538049 0.0134006 23.41 0.0026888 0.0107263 23.5042 -6.4016e-12 0.00804903 23.5671 -0.0026859 0.00536892 23.5985 -0.00536892 0.0026859 23.5985 -0.00804903 7.28399e-12 23.5671 -0.0107263 -0.0026888 23.5042 -0.0134006 -0.00538049 23.41 -0.016072 -0.00807507 23.2843 -0.0187406 -0.0107725 23.1272 -0.0214062 -0.0134729 22.9386 -0.024069 -0.0161762 22.7187 -0.0267289 -0.0188823 22.4673 -0.0293858 -0.0215914 22.1846 -0.0320399 -0.0243033 21.8703 -0.0346911 -0.0270182 21.5247 -0.0373394 -0.0297359 21.1477 -0.0399848 -0.0324565 20.7392 -0.0426273 -0.03518 20.2993 0.0376904 0.0401729 20.3278 0.034992 0.0375014 20.7681 0.0322945 0.034829 21.1769 0.029598 0.0321556 21.5543 0.0269024 0.0294813 21.9003 0.0242079 0.026806 22.2147 0.0215142 0.0241297 22.4978 0.0188216 0.0214525 22.7494 0.0161299 0.0187743 22.9695 0.0134392 0.0160952 23.1582 0.0107494 0.0134151 23.3154 0.00806061 0.010734 23.4412 0.00537277 0.00805193 23.5356 0.0026859 0.00536892 23.5985 -6.65326e-12 0.00268494 23.6299 -0.00268494 7.075e-12 23.6299 -0.00536892 -0.0026859 23.5985 -0.00805193 -0.00537277 23.5356 -0.010734 -0.00806061 23.4412 -0.0134151 -0.0107494 23.3154 -0.0160952 -0.0134392 23.1582 -0.0187743 -0.0161299 22.9695 -0.0214525 -0.0188216 22.7494 -0.0241297 -0.0215142 22.4978 -0.026806 -0.0242079 22.2147 -0.0294813 -0.0269024 21.9003 -0.0321556 -0.029598 21.5543 -0.034829 -0.0322945 21.1769 -0.0375014 -0.034992 20.7681 -0.0401729 -0.0376904 20.3278 0.0401729 0.0376904 20.3278 0.0375014 0.034992 20.7681 0.034829 0.0322945 21.1769 0.0321556 0.029598 21.5543 0.0294813 0.0269024 21.9003 0.026806 0.0242079 22.2147 0.0241297 0.0215142 22.4978 0.0214525 0.0188216 22.7494 0.0187743 0.0161299 22.9695 0.0160952 0.0134392 23.1582 0.0134151 0.0107494 23.3154 0.010734 0.00806061 23.4412 0.00805193 0.00537277 23.5356 0.00536892 0.0026859 23.5985 0.00268494 7.032e-12 23.6299 -6.66023e-12 -0.00268494 23.6299 -0.0026859 -0.00536892 23.5985 -0.00537277 -0.00805193 23.5356 -0.00806061 -0.010734 23.4412 -0.0107494 -0.0134151 23.3154 -0.0134392 -0.0160952 23.1582 -0.0161299 -0.0187743 22.9695 -0.0188216 -0.0214525 22.7494 -0.0215142 -0.0241297 22.4978 -0.0242079 -0.026806 22.2147 -0.0269024 -0.0294813 21.9003 -0.029598 -0.0321556 21.5543 -0.0322945 -0.034829 21.1769 -0.034992 -0.0375014 20.7681 -0.0376904 -0.0401729 20.3278 0.0426273 0.03518 20.2993 0.0399848 0.0324565 20.7392 0.0373394 0.0297359 21.1477 0.0346911 0.0270182 21.5247 0.0320399 0.0243033 21.8703 0.0293858 0.0215914 22.1846 0.0267289 0.0188823 22.4673 0.024069 0.0161762 22.7187 0.0214062 0.0134729 22.9386 0.0187406 0.0107725 23.1272 0.016072 0.00807507 23.2843 0.0134006 0.00538049 23.41 0.0107263 0.0026888 23.5042 0.00804903 7.1749e-12 23.5671 0.00536892 -0.0026859 23.5985 0.0026859 -0.00536892 23.5985 -6.40272e-12 -0.00804903 23.5671 -0.0026888 -0.0107263 23.5042 -0.00538049 -0.0134006 23.41 -0.00807507 -0.016072 23.2843 -0.0107725 -0.0187406 23.1272 -0.0134729 -0.0214062 22.9386 -0.0161762 -0.024069 22.7187 -0.0188823 -0.0267289 22.4673 -0.0215914 -0.0293858 22.1846 -0.0243033 -0.0320399 21.8703 -0.0270182 -0.0346911 21.5247 -0.0297359 -0.0373394 21.1477 -0.0324565 -0.0399848 20.7392 -0.03518 -0.0426273 20.2993 0.0450538 0.0326417 20.2423 0.0424422 0.029895 20.6814 0.0398257 0.0271532 21.0891 0.0372044 0.0244161 21.4655 0.0345783 0.021684 21.8105 0.0319473 0.0189566 22.1242 0.0293116 0.016234 22.4064 0.026671 0.0135163 22.6574 0.0240256 0.0108034 22.8769 0.0213754 0.00809532 23.0651 0.0187203 0.00539206 23.2219 0.0160605 0.00269362 23.3474 0.0133958 7.30973e-12 23.4415 0.0107263 -0.0026888 23.5042 0.00805193 -0.00537277 23.5356 0.00537277 -0.00805193 23.5356 0.0026888 -0.0107263 23.5042 -6.13944e-12 -0.0133958 23.4415 -0.00269362 -0.0160605 23.3474 -0.00539206 -0.0187203 23.2219 -0.00809532 -0.0213754 23.0651 -0.0108034 -0.0240256 22.8769 -0.0135163 -0.026671 22.6574 -0.016234 -0.0293116 22.4064 -0.0189566 -0.0319473 22.1242 -0.021684 -0.0345783 21.8105 -0.0244161 -0.0372044 21.4655 -0.0271532 -0.0398257 21.0891 -0.029895 -0.0424422 20.6814 -0.0326417 -0.0450538 20.2423 0.0474524 0.0300753 20.1567 0.0448735 0.0273075 20.5947 0.0422879 0.0245463 21.0013 0.0396955 0.021792 21.3767 0.0370964 0.0190443 21.7208 0.0344905 0.0163035 22.0336 0.0318779 0.0135693 22.3151 0.0292585 0.010842 22.5654 0.0266324 0.00812136 22.7843 0.0239996 0.00540749 22.972 0.0213599 0.00270037 23.1284 0.0187136 7.43664e-12 23.2535 0.0160605 -0.00269362 23.3474 0.0134006 -0.00538049 23.41 0.010734 -0.00806061 23.4412 0.00806061 -0.010734 23.4412 0.00538049 -0.0134006 23.41 0.00269362 -0.0160605 23.3474 -5.87027e-12 -0.0187136 23.2535 -0.00270037 -0.0213599 23.1284 -0.00540749 -0.0239996 22.972 -0.00812136 -0.0266324 22.7843 -0.010842 -0.0292585 22.5654 -0.0135693 -0.0318779 22.3151 -0.0163035 -0.0344905 22.0336 -0.0190443 -0.0370964 21.7208 -0.021792 -0.0396955 21.3767 -0.0245463 -0.0422879 21.0013 -0.0273075 -0.0448735 20.5947 -0.0300753 -0.0474524 20.1567 0.0498229 0.027481 20.0427 0.0472788 0.0246939 20.479 0.044726 0.0219154 20.8842 0.0421644 0.0191456 21.2583 0.0395943 0.0163845 21.6011 0.0370154 0.013632 21.9128 0.0344279 0.0108883 22.1933 0.0318316 0.00815318 22.4427 0.0292267 0.00542678 22.6609 0.0266131 0.00270905 22.8479 0.0239909 7.55587e-12 23.0037 0.0213599 -0.00270037 23.1284 0.0187203 -0.00539206 23.2219 0.016072 -0.00807507 23.2843 0.0134151 -0.0107494 23.3154 0.0107494 -0.0134151 23.3154 0.00807507 -0.016072 23.2843 0.00539206 -0.0187203 23.2219 0.00270037 -0.0213599 23.1284 -5.59505e-12 -0.0239909 23.0037 -0.00270905 -0.0266131 22.8479 -0.00542678 -0.0292267 22.6609 -0.00815318 -0.0318316 22.4427 -0.0108883 -0.0344279 22.1933 -0.013632 -0.0370154 21.9128 -0.0163845 -0.0395943 21.6011 -0.0191456 -0.0421644 21.2583 -0.0219154 -0.044726 20.8842 -0.0246939 -0.0472788 20.479 -0.027481 -0.0498229 20.0427 0.0521655 0.0248588 19.9001 0.049658 0.0220543 20.3345 0.0471399 0.0192603 20.7379 0.0446112 0.016477 21.1102 0.0420719 0.0137044 21.4516 0.0395219 0.0109423 21.7619 0.0369614 0.00819079 22.0411 0.0343902 0.00544992 22.2894 0.0318085 0.00271966 22.5066 0.0292161 7.66755e-12 22.6928 0.0266131 -0.00270905 22.8479 0.0239996 -0.00540749 22.972 0.0213754 -0.00809532 23.0651 0.0187406 -0.0107725 23.1272 0.0160952 -0.0134392 23.1582 0.0134392 -0.0160952 23.1582 0.0107725 -0.0187406 23.1272 0.00809532 -0.0213754 23.0651 0.00540749 -0.0239996 22.972 0.00270905 -0.0266131 22.8479 -5.31366e-12 -0.0292161 22.6928 -0.00271966 -0.0318085 22.5066 -0.00544992 -0.0343902 22.2894 -0.00819079 -0.0369614 22.0411 -0.0109423 -0.0395219 21.7619 -0.0137044 -0.0420719 21.4516 -0.016477 -0.0446112 21.1102 -0.0192603 -0.0471399 20.7379 -0.0220543 -0.049658 20.3345 -0.0248588 -0.0521655 19.9001 0.0544802 0.0222085 19.729 0.0520112 0.0193886 20.161 0.0495298 0.0165812 20.5622 0.0470358 0.0137863 20.9326 0.0445292 0.011004 21.2721 0.0420102 0.00823418 21.5807 0.0394785 0.00547692 21.8585 0.0369344 0.00273219 22.1054 0.0343777 7.7719e-12 22.3214 0.0318085 -0.00271966 22.5066 0.0292267 -0.00542678 22.6609 0.0266324 -0.00812136 22.7843 0.0240256 -0.0108034 22.8769 0.0214062 -0.0134729 22.9386 0.0187743 -0.0161299 22.9695 0.0161299 -0.0187743 22.9695 0.0134729 -0.0214062 22.9386 0.0108034 -0.0240256 22.8769 0.00812136 -0.0266324 22.7843 0.00542678 -0.0292267 22.6609 0.00271966 -0.0318085 22.5066 -5.02594e-12 -0.0343777 22.3214 -0.00273219 -0.0369344 22.1054 -0.00547692 -0.0394785 21.8585 -0.00823418 -0.0420102 2