<?xml version="1.0"?> 
<VTKFile type="StructuredGrid" version="0.1"> 
<StructuredGrid WholeExtent="0 29 0 29 0 29"> 
<Piece Extent="0 29 0 29 0 29"> 
<PointData>
<DataArray type="Float32" Name="efield" format="ascii" NumberOfComponents="3"> 
29.0931 1.13378 9.01044 29.5766 0.328023 8.60643 30.0602 -0.304589 8.22084 30.5437 -0.797375 7.85327 31.0273 -1.17608 7.50329 31.5108 -1.4609 7.17053 31.9944 -1.66793 6.85458 32.4779 -1.81012 6.55509 32.9615 -1.89802 6.27169 33.4451 -1.94033 6.00403 33.9286 -1.94425 5.75176 34.4122 -1.91583 5.51456 34.8957 -1.86016 5.29211 35.3793 -1.78157 5.08408 35.8628 -1.68377 4.89019 36.0957 -1.64981 4.70748 36.0777 -1.66836 4.48762 36.0598 -1.65786 4.2169 36.0419 -1.62102 3.89493 36.024 -1.56024 3.52127 36.0061 -1.47761 3.09544 35.9882 -1.37499 2.61693 35.9702 -1.25404 2.08518 35.9523 -1.11622 1.49957 35.9344 -0.962849 0.859455 35.9165 -0.795099 0.164129 35.8986 -0.614029 -0.58716 35.8807 -0.420595 -1.39521 35.8627 -0.215659 -2.26089 35.8448 2.26772e-15 -3.1851 27.9951 1.96407 9.22093 28.5823 1.40143 8.81971 29.1601 0.970236 8.43662 29.73 0.645979 8.07118 30.293 0.409391 7.72294 30.8502 0.245105 7.39146 31.4022 0.140714 7.07629 31.9497 0.0860971 6.77703 32.4931 0.0729125 6.49327 33.0329 0.0942276 6.22461 33.5695 0.144233 5.97066 34.1031 0.218024 5.73105 34.6339 0.311432 5.50541 35.1623 0.420895 5.29339 35.6883 0.543347 5.09463 35.9659 0.588629 4.90606 35.9953 0.567857 4.6791 36.0232 0.570468 4.40001 36.0497 0.59412 4.06833 36.0748 0.636751 3.68358 36.0987 0.696535 3.2452 36.1216 0.771851 2.75262 36.1434 0.861256 2.2052 36.1643 0.963458 1.60224 36.1843 1.0773 0.943003 36.2035 1.20174 0.226702 36.2219 1.33585 -0.547516 36.2397 1.47876 -1.38056 36.2567 1.62972 -2.2734 36.2732 1.78803 -3.22708 26.9682 2.86541 9.41639 27.6326 2.50561 9.01772 28.2816 2.24563 8.6369 28.9175 2.06713 8.2734 29.5419 1.95547 7.92672 30.1564 1.89883 7.59638 30.7619 1.88754 7.28191 31.3596 1.91363 6.98284 31.9502 1.97049 6.69873 32.5343 2.05255 6.42915 33.1126 2.15512 6.17367 33.6854 2.27423 5.93188 34.2533 2.40647 5.70338 34.8165 2.54892 5.48778 35.3754 2.69904 5.28469 35.6886 2.75968 5.09091 35.7568 2.7417 4.85763 35.822 2.74216 4.5711 35.8846 2.75905 4.23081 35.9447 2.79061 3.83622 36.0025 2.83526 3.38674 36.0583 2.89159 2.88172 36.112 2.95837 2.32045 36.164 3.03447 1.70218 36.2142 3.11887 1.0261 36.2629 3.21069 0.291331 36.31 3.30908 -0.503065 36.3558 3.41332 -1.35809 36.4002 3.52272 -2.27481 36.4434 3.63668 -3.25437 25.9906 3.81596 9.59681 26.7121 3.62773 9.20047 27.4146 3.51488 8.8217 28.1005 3.46349 8.45995 28.7718 3.46233 8.11467 29.4302 3.50219 7.78535 30.0771 3.57551 7.47147 30.7134 3.67598 7.17256 31.3403 3.79832 6.88812 31.9585 3.93808 6.61769 32.5687 4.09146 6.36082 33.1715 4.25524 6.11707 33.7674 4.42666 5.886 34.3568 4.6033 5.66719 34.9401 4.78311 5.46024 35.2808 4.86205 5.26183 35.38 4.85069 5.02293 35.4751 4.85346 4.7298 35.5665 4.86866 4.38188 35.6544 4.89479 3.97859 35.7391 4.9305 3.5193 35.8207 4.9746 3.00329 35.8995 5.02601 2.42983 35.9757 5.08378 1.79809 36.0494 5.14704 1.10719 36.1207 5.21501 0.356198 36.1898 5.28697 -0.455906 36.2569 5.36231 -1.33021 36.3219 5.44042 -2.26786 36.385 5.5208 -3.27011 25.0463 4.7999 9.7622 25.8096 4.7584 9.36797 26.5516 4.77309 8.99105 27.2747 4.83331 8.63086 27.9811 4.93033 8.28682 28.6724 5.05699 7.9584 29.3501 5.20731 7.64505 30.0155 5.37629 7.34625 30.6694 5.55973 7.06149 31.3129 5.75405 6.79028 31.9466 5.9562 6.53215 32.5712 6.16358 6.28662 33.1873 6.37393 6.05325 33.7953 6.58532 5.83158 34.3956 6.79604 5.62119 34.7568 6.89535 5.41866 34.8802 6.89344 5.17479 34.9986 6.90193 4.87581 35.1124 6.91939 4.52115 35.2217 6.94455 4.11019 35.327 6.97628 3.64225 35.4284 7.01355 3.11659 35.5262 7.05548 2.53241 35.6206 7.10124 1.88885 35.7118 7.1501 1.18498 35.7999 7.2014 0.419779 35.885 7.25454 -0.407815 35.9674 7.30899 -1.29896 36.0472 7.36425 -2.2549 36.1244 7.41988 -3.27695 24.1237 5.80556 9.91255 24.9166 5.89066 9.52021 25.6868 6.01667 9.14495 26.4366 6.17537 8.78615 27.1682 6.35998 8.44322 27.8832 6.56487 8.11559 28.5831 6.78534 7.80268 29.2691 7.01742 7.50396 29.9423 7.25776 7.21889 30.6034 7.50351 6.94698 31.2533 7.75222 6.6877 31.8927 8.0018 6.44058 32.5221 8.25044 6.20514 33.1421 8.49657 5.98093 33.753 8.73883 5.76749 34.1284 8.85984 5.56133 34.2702 8.86945 5.31306 34.4062 8.88621 5.00893 34.5366 8.90896 4.64834 34.6619 8.93663 4.23064 34.7823 8.96826 3.75512 34.8982 9.00303 3.221 35.0097 9.04018 2.62746 35.1171 9.07901 1.97357 35.2205 9.11894 1.25837 35.3203 9.1594 0.480797 35.4164 9.1999 -0.360282 35.5091 9.23999 -1.26608 35.5985 9.27928 -2.23792 35.6848 9.31739 -3.27718 23.2141 6.82416 10.0479 24.0267 7.01925 9.65722 24.8157 7.24296 9.28342 25.5835 7.48893 8.92585 26.332 7.75188 8.58389 27.0629 8.02741 8.25694 27.7775 8.31181 7.94441 28.4771 8.60197 7.64574 29.1625 8.89521 7.36039 29.8348 9.18929 7.08782 30.4946 9.48225 6.82752 31.1426 9.77242 6.57898 31.7795 10.0584 6.34171 32.4056 10.3389 6.11525 33.0215 10.6128 5.89912 33.4058 10.7563 5.68976 33.5608 10.7788 5.43764 33.7092 10.8057 5.129 33.8515 10.836 4.76322 33.9879 10.8689 4.33964 34.1188 10.9035 3.85751 34.2445 10.9391 3.31603 34.3651 10.9752 2.71434 34.481 11.0112 2.0515 34.5924 11.0466 1.32648 34.6993 11.0809 0.538187 34.8021 11.1137 -0.314559 34.9008 11.1448 -1.23303 34.9957 11.1737 -2.2186 35.0867 11.2001 -3.27273 22.3107 7.84904 10.1682 23.1347 8.14019 9.77898 23.9348 8.44998 9.40648 24.7131 8.77351 9.04999 25.4715 9.10668 8.70886 26.2116 9.44606 8.3825 26.9345 9.78876 8.07028 27.6414 10.1323 7.77165 28.3332 10.4747 7.48603 29.0109 10.814 7.21287 29.6751 11.1489 6.95165 30.3264 11.4779 6.70185 30.9654 11.8 6.46298 31.5927 12.1141 6.23454 32.2087 12.4195 6.01607 32.5972 12.5858 5.80392 32.7608 12.6222 5.54845 32.9174 12.6605 5.2359 33.0673 12.7 4.86562 33.2107 12.74 4.43695 33.3481 12.7799 3.94911 33.4796 12.8191 3.40128 33.6055 12.857 2.79258 33.7261 12.8934 2.12202 33.8416 12.9277 1.38856 33.9521 12.9596 0.591066 34.0579 12.9888 -0.271688 34.159 13.0151 -1.20102 34.2557 13.0381 -2.19835 34.3481 13.0576 -3.26521 21.4085 8.87506 10.2734 22.2368 9.25044 9.88552 23.0412 9.63631 9.51413 23.8236 10.0289 9.15856 24.5858 10.4251 8.81816 25.3291 10.8222 8.49229 26.0546 11.218 8.18034 26.7635 11.6107 7.88172 27.4565 11.9985 7.59585 28.1346 12.3802 7.32217 28.7983 12.7546 7.06015 29.4483 13.1206 6.80926 30.085 13.4774 6.56899 30.7091 13.8242 6.33884 31.3208 14.1605 6.11835 31.7094 14.3497 5.9038 31.8779 14.4003 5.64545 32.0389 14.4509 5.32954 32.1927 14.5008 4.95542 32.3396 14.5494 4.52239 32.48 14.5963 4.02967 32.614 14.641 3.47643 32.742 14.6831 2.86175 32.8641 14.7224 2.18464 32.9806 14.7584 1.44401 33.0916 14.7909 0.63871 33.1974 14.8197 -0.232529 33.298 14.8445 -1.17106 33.3937 14.8652 -2.17835 33.4845 14.8817 -3.25598 20.5035 9.89828 10.3636 21.3298 10.3477 9.97683 22.1326 10.8009 9.60638 22.9135 11.2551 9.2516 23.674 11.7078 8.9118 24.4153 12.1571 8.58634 25.1385 12.6013 8.27461 25.8445 13.039 7.97599 26.5342 13.4689 7.6899 27.2082 13.8901 7.41577 27.8672 14.3016 7.15306 28.5117 14.7027 6.90123 29.1422 15.0927 6.65977 29.7591 15.4712 6.42817 30.3629 15.8376 6.20596 30.7481 16.0493 5.98939 30.9182 16.1144 5.72861 31.0804 16.1777 5.40986 31.235 16.2387 5.03251 31.3824 16.297 4.59582 31.5229 16.3521 4.09901 31.6566 16.4038 3.54124 31.7838 16.4518 2.92156 31.9048 16.4958 2.23896 32.0198 16.5357 1.49234 32.1288 16.5711 0.680524 32.2321 16.602 -0.197791 32.3298 16.6281 -1.14399 32.4222 16.6494 -2.15958 32.5092 16.6658 -3.24617 19.5927 10.9157 10.4388 20.4114 11.4303 10.0529 21.2071 11.9431 9.68325 21.9813 12.4522 9.32911 22.7352 12.9556 8.9898 23.4699 13.4521 8.66469 24.1863 13.9402 8.35312 24.8852 14.4191 8.05449 25.5674 14.8879 7.76821 26.2334 15.3457 7.49371 26.8838 15.792 7.23042 27.5192 16.2262 6.97781 28.14 16.6479 6.73535 28.7465 17.0567 6.50256 29.3391 17.4524 6.27894 29.7179 17.686 6.06069 29.8866 17.7655 5.79791 30.0472 17.8417 5.47684 30.2001 17.9141 5.09682 30.3454 17.9827 4.65714 30.4835 18.0469 4.15698 30.6146 18.1067 3.5955 30.7389 18.1619 2.97173 30.8566 18.2122 2.28466 30.9679 18.2574 1.53316 31.073 18.2976 0.716032 31.1719 18.3325 -0.168043 31.2649 18.3621 -1.12048 31.3521 18.3863 -2.14281 31.4336 18.4049 -3.23669 18.6737 11.9249 10.4989 19.4796 12.4969 10.1138 20.2633 13.0625 9.74474 21.0261 13.6204 9.3911 21.7689 14.1692 9.05219 22.4926 14.7081 8.72734 23.1981 15.2362 8.4159 23.886 15.7527 8.11726 24.5569 16.2571 7.83083 25.2113 16.7489 7.55601 25.8499 17.2276 7.29226 26.4729 17.693 7.03902 27.0807 18.1447 6.79578 27.6739 18.5825 6.56203 28.2525 19.0063 6.33728 28.6221 19.2612 6.11772 28.787 19.3547 5.85335 28.9438 19.4436 5.53044 29.0926 19.5277 5.14833 29.2338 19.6068 4.70627 29.3676 19.6807 4.20347 29.4942 19.7493 3.63906 29.6137 19.8124 3.01208 29.7264 19.87 2.32149 29.8324 19.922 1.56616 29.9319 19.9682 0.744859 30.025 20.0087 -0.143736 30.1119 20.0433 -1.10107 30.1927 20.0721 -2.12869 30.2674 20.095 -3.22828 17.7448 12.9242 10.544 18.5329 13.5466 10.1594 19.2998 14.1588 9.79084 20.0466 14.76 9.43759 20.7741 15.3494 9.09897 21.4829 15.9264 8.77431 22.1736 16.4905 8.46297 22.8469 17.0412 8.16432 23.5031 17.5782 7.87777 24.1428 18.1013 7.60272 24.7663 18.6102 7.33861 25.374 19.1047 7.08491 25.9662 19.5847 6.84108 26.5433 20.05 6.60662 27.1054 20.5007 6.38103 27.4636 20.776 6.16048 27.6226 20.8829 5.89493 27.7734 20.9842 5.57065 27.9164 21.0797 5.18697 28.0517 21.1694 4.74316 28.1796 21.2532 4.23841 28.3001 21.331 3.67183 28.4134 21.4027 3.04247 28.5198 21.4684 2.34927 28.6193 21.5278 1.5911 28.7121 21.5811 0.766718 28.7983 21.6283 -0.125217 28.8781 21.6692 -1.08616 28.9515 21.704 -2.11769 29.0186 21.7326 -3.2215 16.8048 13.9125 10.5741 17.5701 14.5789 10.1898 18.3157 15.2321 9.82158 19.0422 15.8715 9.46858 19.7502 16.4969 9.13015 20.4402 17.1079 8.80562 21.1126 17.7043 8.49434 21.7678 18.2859 8.19568 22.4061 18.8527 7.90905 23.028 19.4044 7.63384 23.6336 19.9411 7.36951 24.2234 20.4627 7.11549 24.7974 20.9691 6.87127 25.3561 21.4604 6.63633 25.8996 21.9367 6.41018 26.2443 22.2313 6.18898 26.3955 22.3508 5.92265 26.5388 22.464 5.59746 26.6744 22.5706 5.21275 26.8024 22.6708 4.76777 26.9229 22.7644 4.26172 27.0361 22.8515 3.69371 27.1422 22.9321 3.06278 27.2413 23.0061 2.36786 27.3334 23.0736 1.60782 27.4187 23.1347 0.781403 27.4973 23.1892 -0.112736 27.5693 23.2374 -1.07606 27.6348 23.2791 -2.11016 27.6939 23.3145 -3.21675 15.853 14.8889 10.5891 16.5905 15.5935 10.2051 17.3101 16.2824 9.83695 18.012 16.9553 9.48407 18.6965 17.6123 9.14574 19.3639 18.2534 8.82127 20.0145 18.8786 8.51002 20.6483 19.488 8.21136 21.2658 20.0815 7.92468 21.8669 20.6593 7.6494 22.4521 21.2214 7.38495 23.0214 21.768 7.13077 23.575 22.299 6.88636 24.1131 22.8146 6.65118 24.6359 23.3149 6.42476 24.9654 23.6277 6.20322 25.1073 23.759 5.93651 25.2417 23.8832 5.61087 25.3686 24.0004 5.22564 25.4881 24.1105 4.78009 25.6003 24.2137 4.27339 25.7054 24.31 3.70467 25.8034 24.3994 3.07295 25.8944 24.482 2.37718 25.9785 24.5578 1.6162 26.0558 24.6269 0.788778 26.1264 24.6894 -0.106455 26.1904 24.7453 -1.07096 26.2478 24.7947 -2.10634 26.2987 24.8376 -3.21431 14.8889 15.853 10.5891 15.5935 16.5905 10.2051 16.2824 17.3101 9.83695 16.9553 18.012 9.48407 17.6123 18.6965 9.14574 18.2534 19.3639 8.82127 18.8786 20.0145 8.51002 19.488 20.6483 8.21136 20.0815 21.2658 7.92468 20.6593 21.8669 7.6494 21.2214 22.4521 7.38495 21.768 23.0214 7.13077 22.299 23.575 6.88636 22.8146 24.1131 6.65118 23.3149 24.6359 6.42476 23.6277 24.9654 6.20322 23.759 25.1073 5.93651 23.8832 25.2417 5.61087 24.0004 25.3686 5.22564 24.1105 25.4881 4.78009 24.2137 25.6003 4.27339 24.31 25.7054 3.70467 24.3994 25.8034 3.07295 24.482 25.8944 2.37718 24.5578 25.9785 1.6162 24.6269 26.0558 0.788778 24.6894 26.1264 -0.106455 24.7453 26.1904 -1.07096 24.7947 26.2478 -2.10634 24.8376 26.2987 -3.21431 13.9125 16.8048 10.5741 14.5789 17.5701 10.1898 15.2321 18.3157 9.82158 15.8715 19.0422 9.46858 16.4969 19.7502 9.13015 17.1079 20.4402 8.80562 17.7043 21.1126 8.49434 18.2859 21.7678 8.19568 18.8527 22.4061 7.90905 19.4044 23.028 7.63384 19.9411 23.6336 7.36951 20.4627 24.2234 7.11549 20.9691 24.7974 6.87127 21.4604 25.3561 6.63633 21.9367 25.8996 6.41018 22.2313 26.2443 6.18898 22.3508 26.3955 5.92265 22.464 26.5388 5.59746 22.5706 26.6744 5.21275 22.6708 26.8024 4.76777 22.7644 26.9229 4.26172 22.8515 27.0361 3.69371 22.9321 27.1422 3.06278 23.0061 27.2413 2.36786 23.0736 27.3334 1.60782 23.1347 27.4187 0.781403 23.1892 27.4973 -0.112736 23.2374 27.5693 -1.07606 23.2791 27.6348 -2.11016 23.3145 27.6939 -3.21675 12.9242 17.7448 10.544 13.5466 18.5329 10.1594 14.1588 19.2998 9.79084 14.76 20.0466 9.43759 15.3494 20.7741 9.09897 15.9264 21.4829 8.77431 16.4905 22.1736 8.46297 17.0412 22.8469 8.16432 17.5782 23.5031 7.87777 18.1013 24.1428 7.60272 18.6102 24.7663 7.33861 19.1047 25.374 7.08491 19.5847 25.9662 6.84108 20.05 26.5433 6.60662 20.5007 27.1054 6.38103 20.776 27.4636 6.16048 20.8829 27.6226 5.89493 20.9842 27.7734 5.57065 21.0797 27.9164 5.18697 21.1694 28.0517 4.74316 21.2532 28.1796 4.23841 21.331 28.3001 3.67183 21.4027 28.4134 3.04247 21.4684 28.5198 2.34927 21.5278 28.6193 1.5911 21.5811 28.7121 0.766718 21.6283 28.7983 -0.125217 21.6692 28.8781 -1.08616 21.704 28.9515 -2.11769 21.7326 29.0186 -3.2215 11.9249 18.6737 10.4989 12.4969 19.4796 10.1138 13.0625 20.2633 9.74474 13.6204 21.0261 9.3911 14.1692 21.7689 9.05219 14.7081 22.4926 8.72734 15.2362 23.1981 8.4159 15.7527 23.886 8.11726 16.2571 24.5569 7.83083 16.7489 25.2113 7.55601 17.2276 25.8499 7.29226 17.693 26.4729 7.03902 18.1447 27.0807 6.79578 18.5825 27.6739 6.56203 19.0063 28.2525 6.33728 19.2612 28.6221 6.11772 19.3547 28.787 5.85335 19.4436 28.9438 5.53044 19.5277 29.0926 5.14833 19.6068 29.2338 4.70627 19.6807 29.3676 4.20347 19.7493 29.4942 3.63906 19.8124 29.6137 3.01208 19.87 29.7264 2.32149 19.922 29.8324 1.56616 19.9682 29.9319 0.744859 20.0087 30.025 -0.143736 20.0433 30.1119 -1.10107 20.0721 30.1927 -2.12869 20.095 30.2674 -3.22828 10.9157 19.5927 10.4388 11.4303 20.4114 10.0529 11.9431 21.2071 9.68325 12.4522 21.9813 9.32911 12.9556 22.7352 8.9898 13.4521 23.4699 8.66469 13.9402 24.1863 8.35312 14.4191 24.8852 8.05449 14.8879 25.5674 7.76821 15.3457 26.2334 7.49371 15.792 26.8838 7.23042 16.2262 27.5192 6.97781 16.6479 28.14 6.73535 17.0567 28.7465 6.50256 17.4524 29.3391 6.27894 17.686 29.7179 6.06069 17.7655 29.8866 5.79791 17.8417 30.0472 5.47684 17.9141 30.2001 5.09682 17.9827 30.3454 4.65714 18.0469 30.4835 4.15698 18.1067 30.6146 3.5955 18.1619 30.7389 2.97173 18.2122 30.8566 2.28466 18.2574 30.9679 1.53316 18.2976 31.073 0.716032 18.3325 31.1719 -0.168043 18.3621 31.2649 -1.12048 18.3863 31.3521 -2.14281 18.4049 31.4336 -3.23669 9.89828 20.5035 10.3636 10.3477 21.3298 9.97683 10.8009 22.1326 9.60638 11.2551 22.9135 9.2516 11.7078 23.674 8.9118 12.1571 24.4153 8.58634 12.6013 25.1385 8.27461 13.039 25.8445 7.97599 13.4689 26.5342 7.6899 13.8901 27.2082 7.41577 14.3016 27.8672 7.15306 14.7027 28.5117 6.90123 15.0927 29.1422 6.65977 15.4712 29.7591 6.42817 15.8376 30.3629 6.20596 16.0493 30.7481 5.98939 16.1144 30.9182 5.72861 16.1777 31.0804 5.40986 16.2387 31.235 5.03251 16.297 31.3824 4.59582 16.3521 31.5229 4.09901 16.4038 31.6566 3.54124 16.4518 31.7838 2.92156 16.4958 31.9048 2.23896 16.5357 32.0198 1.49234 16.5711 32.1288 0.680524 16.602 32.2321 -0.197791 16.6281 32.3298 -1.14399 16.6494 32.4222 -2.15958 16.6658 32.5092 -3.24617 8.87506 21.4085 10.2734 9.25044 22.2368 9.88552 9.63631 23.0412 9.51413 10.0289 23.8236 9.15856 10.4251 24.5858 8.81816 10.8222 25.3291 8.49229 11.218 26.0546 8.18034 11.6107 26.7635 7.88172 11.9985 27.4565 7.59585 12.3802 28.1346 7.32217 12.7546 28.7983 7.06015 13.1206 29.4483 6.80926 13.4774 30.085 6.56899 13.8242 30.7091 6.33884 14.1605 31.3208 6.11835 14.3497 31.7094 5.9038 14.4003 31.8779 5.64545 14.4509 32.0389 5.32954 14.5008 32.1927 4.95542 14.5494 32.3396 4.52239 14.5963 32.48 4.02967 14.641 32.614 3.47643 14.6831 32.742 2.86175 14.7224 32.8641 2.18464 14.7584 32.9806 1.44401 14.7909 33.0916 0.63871 14.8197 33.1974 -0.232529 14.8445 33.298 -1.17106 14.8652 33.3937 -2.17835 14.8817 33.4845 -3.25598 7.84904 22.3107 10.1682 8.14019 23.1347 9.77898 8.44998 23.9348 9.40648 8.77351 24.7131 9.04999 9.10668 25.4715 8.70886 9.44606 26.2116 8.3825 9.78876 26.9345 8.07028 10.1323 27.6414 7.77165 10.4747 28.3332 7.48603 10.814 29.0109 7.21287 11.1489 29.6751 6.95165 11.4779 30.3264 6.70185 11.8 30.9654 6.46298 12.1141 31.5927 6.23454 12.4195 32.2087 6.01607 12.5858 32.5972 5.80392 12.6222 32.7608 5.54845 12.6605 32.9174 5.2359 12.7 33.0673 4.86562 12.74 33.2107 4.43695 12.7799 33.3481 3.94911 12.8191 33.4796 3.40128 12.857 33.6055 2.79258 12.8934 33.7261 2.12202 12.9277 33.8416 1.38856 12.9596 33.9521 0.591066 12.9888 34.0579 -0.271688 13.0151 34.159 -1.20102 13.0381 34.2557 -2.19835 13.0576 34.3481 -3.26521 6.82416 23.2141 10.0479 7.01925 24.0267 9.65722 7.24296 24.8157 9.28342 7.48893 25.5835 8.92585 7.75188 26.332 8.58389 8.02741 27.0629 8.25694 8.31181 27.7775 7.94441 8.60197 28.4771 7.64574 8.89521 29.1625 7.36039 9.18929 29.8348 7.08782 9.48225 30.4946 6.82752 9.77242 31.1426 6.57898 10.0584 31.7795 6.34171 10.3389 32.4056 6.11525 10.6128 33.0215 5.89912 10.7563 33.4058 5.68976 10.7788 33.5608 5.43764 10.8057 33.7092 5.129 10.836 33.8515 4.76322 10.8689 33.9879 4.33964 10.9035 34.1188 3.85751 10.9391 34.2445 3.31603 10.9752 34.3651 2.71434 11.0112 34.481 2.0515 11.0466 34.5924 1.32648 11.0809 34.6993 0.538187 11.1137 34.8021 -0.314559 11.1448 34.9008 -1.23303 11.1737 34.9957 -2.2186 11.2001 35.0867 -3.27273 5.80556 24.1237 9.91255 5.89066 24.9166 9.52021 6.01667 25.6868 9.14495 6.17537 26.4366 8.78615 6.35998 27.1682 8.44322 6.56487 27.8832 8.11559 6.78534 28.5831 7.80268 7.01742 29.2691 7.50396 7.25776 29.9423 7.21889 7.50351 30.6034 6.94698 7.75222 31.2533 6.6877 8.0018 31.8927 6.44058 8.25044 32.5221 6.20514 8.49657 33.1421 5.98093 8.73883 33.753 5.76749 8.85984 34.1284 5.56133 8.86945 34.2702 5.31306 8.88621 34.4062 5.00893 8.90896 34.5366 4.64834 8.93663 34.6619 4.23064 8.96826 34.7823 3.75512 9.00303 34.8982 3.221 9.04018 35.0097 2.62746 9.07901 35.1171 1.97357 9.11894 35.2205 1.25837 9.1594 35.3203 0.480797 9.1999 35.4164 -0.360282 9.23999 35.5091 -1.26608 9.27928 35.5985 -2.23792 9.31739 35.6848 -3.27718 4.7999 25.0463 9.7622 4.7584 25.8096 9.36797 4.77309 26.5516 8.99105 4.83331 27.2747 8.63086 4.93033 27.9811 8.28682 5.05699 28.6724 7.9584 5.20731 29.3501 7.64505 5.37629 30.0155 7.34625 5.55973 30.6694 7.06149 5.75405 31.3129 6.79028 5.9562 31.9466 6.53215 6.16358 32.5712 6.28662 6.37393 33.1873 6.05325 6.58532 33.7953 5.83158 6.79604 34.3956 5.62119 6.89535 34.7568 5.41866 6.89344 34.8802 5.17479 6.90193 34.9986 4.87581 6.91939 35.1124 4.52115 6.94455 35.2217 4.11019 6.97628 35.327 3.64225 7.01355 35.4284 3.11659 7.05548 35.5262 2.53241 7.10124 35.6206 1.88885 7.1501 35.7118 1.18498 7.2014 35.7999 0.419779 7.25454 35.885 -0.407815 7.30899 35.9674 -1.29896 7.36425 36.0472 -2.2549 7.41988 36.1244 -3.27695 3.81596 25.9906 9.59681 3.62773 26.7121 9.20047 3.51488 27.4146 8.8217 3.46349 28.1005 8.45995 3.46233 28.7718 8.11467 3.50219 29.4302 7.78535 3.57551 30.0771 7.47147 3.67598 30.7134 7.17256 3.79832 31.3403 6.88812 3.93808 31.9585 6.61769 4.09146 32.5687 6.36082 4.25524 33.1715 6.11707 4.42666 33.7674 5.886 4.6033 34.3568 5.66719 4.78311 34.9401 5.46024 4.86205 35.2808 5.26183 4.85069 35.38 5.02293 4.85346 35.4751 4.7298 4.86866 35.5665 4.38188 4.89479 35.6544 3.97859 4.9305 35.7391 3.5193 4.9746 35.8207 3.00329 5.02601 35.8995 2.42983 5.08378 35.9757 1.79809 5.14704 36.0494 1.10719 5.21501 36.1207 0.356198 5.28697 36.1898 -0.455906 5.36231 36.2569 -1.33021 5.44042 36.3219 -2.26786 5.5208 36.385 -3.27011 2.86541 26.9682 9.41639 2.50561 27.6326 9.01772 2.24563 28.2816 8.6369 2.06713 28.9175 8.2734 1.95547 29.5419 7.92672 1.89883 30.1564 7.59638 1.88754 30.7619 7.28191 1.91363 31.3596 6.98284 1.97049 31.9502 6.69873 2.05255 32.5343 6.42915 2.15512 33.1126 6.17367 2.27423 33.6854 5.93188 2.40647 34.2533 5.70338 2.54892 34.8165 5.48778 2.69904 35.3754 5.28469 2.75968 35.6886 5.09091 2.7417 35.7568 4.85763 2.74216 35.822 4.5711 2.75905 35.8846 4.23081 2.79061 35.9447 3.83622 2.83526 36.0025 3.38674 2.89159 36.0583 2.88172 2.95837 36.112 2.32045 3.03447 36.164 1.70218 3.11887 36.2142 1.0261 3.21069 36.2629 0.291331 3.30908 36.31 -0.503065 3.41332 36.3558 -1.35809 3.52272 36.4002 -2.27481 3.63668 36.4434 -3.25437 1.96407 27.9951 9.22093 1.40143 28.5823 8.81971 0.970236 29.1601 8.43662 0.645979 29.73 8.07118 0.409391 30.293 7.72294 0.245105 30.8502 7.39146 0.140714 31.4022 7.07629 0.0860971 31.9497 6.77703 0.0729125 32.4931 6.49327 0.0942276 33.0329 6.22461 0.144233 33.5695 5.97066 0.218024 34.1031 5.73105 0.311432 34.6339 5.50541 0.420895 35.1623 5.29339 0.543347 35.6883 5.09463 0.588629 35.9659 4.90606 0.567857 35.9953 4.6791 0.570468 36.0232 4.40001 0.59412 36.0497 4.06833 0.636751 36.0748 3.68358 0.696535 36.0987 3.2452 0.771851 36.1216 2.75262 0.861256 36.1434 2.2052 0.963458 36.1643 1.60224 1.0773 36.1843 0.943003 1.20174 36.2035 0.226702 1.33585 36.2219 -0.547516 1.47876 36.2397 -1.38056 1.62972 36.2567 -2.2734 1.78803 36.2732 -3.22708 1.13378 29.0931 9.01044 0.328023 29.5766 8.60643 -0.304589 30.0602 8.22084 -0.797375 30.5437 7.85327 -1.17608 31.0273 7.50329 -1.4609 31.5108 7.17053 -1.66793 31.9944 6.85458 -1.81012 32.4779 6.55509 -1.89802 32.9615 6.27169 -1.94033 33.4451 6.00403 -1.94425 33.9286 5.75176 -1.91583 34.4122 5.51456 -1.86016 34.8957 5.29211 -1.78157 35.3793 5.08408 -1.68377 35.8628 4.89019 -1.64981 36.0957 4.70748 -1.66836 36.0777 4.48762 -1.65786 36.0598 4.2169 -1.62102 36.0419 3.89493 -1.56024 36.024 3.52127 -1.47761 36.0061 3.09544 -1.37499 35.9882 2.61693 -1.25404 35.9702 2.08518 -1.11622 35.9523 1.49957 -0.962849 35.9344 0.859455 -0.795099 35.9165 0.164129 -0.614029 35.8986 -0.58716 -0.420595 35.8807 -1.39521 -0.215659 35.8627 -2.26089 1.13386e-14 35.8448 -3.1851 28.6922 0.83999 -2.98291 29.2339 0.0752668 -2.90303 29.7751 -0.516673 -2.82513 30.3157 -0.969541 -2.7492 30.8559 -1.30936 -2.67519 31.3955 -1.55655 -2.60309 31.9345 -1.72734 -2.53287 32.473 -1.8348 -2.46451 33.011 -1.88958 -2.39798 33.5484 -1.90044 -2.33327 34.0853 -1.87463 -2.27036 34.6216 -1.81826 -2.20922 35.1573 -1.73644 -2.14985 35.6925 -1.63353 -2.09222 36.2272 -1.51327 -2.03632 36.3765 -1.50167 -1.96809 36.1411 -1.57915 -1.90143 35.9059 -1.61884 -1.85511 35.6707 -1.62389 -1.82924 35.4355 -1.59709 -1.82392 35.2004 -1.54087 -1.83929 34.9652 -1.4574 -1.87551 34.7299 -1.34859 -1.93274 34.4945 -1.21613 -2.01116 34.2589 -1.06156 -2.11097 34.0231 -0.88623 -2.23238 33.787 -0.691363 -2.37564 33.5506 -0.478057 -2.541 33.3137 -0.247304 -2.72872 33.0765 -1.00416e-14 -2.93911 27.5893 1.658 -3.01384 28.237 1.13953 -2.94053 28.8745 0.751618 -2.86814 29.5033 0.469521 -2.79667 30.1244 0.273773 -2.72608 30.739 0.148863 -2.65636 31.3476 0.0822793 -2.58749 31.9509 0.0638194 -2.51947 32.5494 0.0850809 -2.45228 33.1436 0.139083 -2.38592 33.7338 0.21998 -2.32039 34.3202 0.322839 -2.25569 34.9032 0.44347 -2.19182 35.4829 0.578291 -2.12879 36.0596 0.724226 -2.0666 36.256 0.744266 -1.99199 36.073 0.657381 -1.9202 35.8885 0.602087 -1.86971 35.7026 0.57564 -1.84063 35.5155 0.575622 -1.8331 35.3271 0.599894 -1.8473 35.1376 0.646556 -1.88339 34.947 0.713915 -1.94158 34.7553 0.800461 -2.02207 34.5626 0.904838 -2.1251 34.369 1.02583 -2.25092 34.1743 1.16233 -2.3998 33.9787 1.31336 -2.57204 33.7821 1.47802 -2.76795 33.5845 1.6555 -2.98788 26.5578 2.54734 -3.04257 27.2847 2.23462 -2.97573 27.9952 2.02045 -2.90878 28.6915 1.88633 -2.84169 29.3755 1.81749 -2.77446 30.0484 1.80201 -2.70706 30.7116 1.83016 -2.63951 31.366 1.89392 -2.57179 32.0123 1.98662 -2.50391 32.6512 2.10269 -2.43589 33.2833 2.23741 -2.36773 33.9091 2.38678 -2.29946 34.529 2.54739 -2.2311 35.1433 2.71631 -2.16267 35.7524 2.891 -2.0942 35.9867 2.9237 -2.01315 35.8476 2.83271 -1.93605 35.7056 2.76784 -1.88107 35.561 2.72672 -1.84836 35.4139 2.70725 -1.8381 35.2646 2.70758 -1.85047 35.1132 2.72605 -1.88568 34.9598 2.76117 -1.94397 34.8046 2.81161 -2.02558 34.6475 2.87618 -2.13078 34.4887 2.9538 -2.25986 34.3283 3.0435 -2.41314 34.1663 3.1444 -2.59095 34.0027 3.25569 -2.79367 33.8376 3.37665 -3.02168 25.576 3.48631 -3.06908 26.3617 3.34788 -3.00854 27.1272 3.28325 -2.94687 27.875 3.27841 -2.88405 28.607 3.32202 -2.82007 29.3249 3.40485 -2.75494 30.0302 3.51927 -2.68866 30.7239 3.65895 -2.62123 31.407 3.8186 -2.55269 32.0803 3.99374 -2.48304 32.7446 4.18059 -2.41232 33.4003 4.37589 -2.34056 34.0481 4.57689 -2.2678 34.6883 4.78119 -2.19409 35.3214 4.98672 -2.11947 35.5855 5.03518 -2.0321 35.4826 4.94418 -1.94964 35.3758 4.87448 -1.89003 35.2653 4.82405 -1.85344 35.1514 4.79108 -1.84009 35.0343 4.77397 -1.85018 34.9142 4.77128 -1.88395 34.7914 4.78173 -1.94168 34.666 4.80416 -2.02364 34.5381 4.83753 -2.13016 34.4078 4.88089 -2.26155 34.2752 4.93339 -2.41818 34.1404 4.99426 -2.60045 34.0035 5.06279 -2.80876 33.8645 5.13834 -3.04357 24.628 4.45923 -3.09338 25.457 4.47005 -3.03887 26.2633 4.53523 -2.98225 27.0494 4.64406 -2.92353 27.8174 4.78778 -2.86269 28.5692 4.95918 -2.79974 29.306 5.15227 -2.73469 30.0292 5.36204 -2.66756 30.7398 5.58428 -2.59838 31.4386 5.81541 -2.52719 32.1265 6.05239 -2.45402 32.804 6.2926 -2.37892 33.4717 6.53382 -2.30195 34.1302 6.77409 -2.22318 34.7798 7.01175 -2.14267 35.0667 7.07818 -2.04918 34.9933 6.99026 -1.96145 34.9151 6.91941 -1.89721 34.8323 6.86389 -1.85664 34.7453 6.82216 -1.84 34.6544 6.79285 -1.84751 34.5598 6.77474 -1.87945 34.4617 6.7667 -1.93613 34.3604 6.76775 -2.01787 34.2559 6.77699 -2.12502 34.1484 6.7936 -2.25795 34.038 6.81684 -2.41707 33.9248 6.84605 -2.60283 33.809 6.88061 -2.8157 33.6906 6.91997 -3.05617 23.7024 5.45446 -3.11548 24.5622 5.5942 -3.06664 25.3977 5.77285 -3.0148 26.2115 5.98215 -2.95995 27.0055 6.21531 -2.90209 27.7816 6.46669 -2.84122 28.5411 6.73158 -2.77736 29.2854 7.00602 -2.71053 30.0154 7.28667 -2.64078 30.732 7.57067 -2.56815 31.436 7.8556 -2.49268 32.1282 8.13937 -2.41445 32.809 8.42018 -2.33352 33.479 8.69648 -2.24998 34.1387 8.96693 -2.1639 34.4421 9.05281 -2.06461 34.3924 8.97027 -1.97183 34.337 8.90107 -1.90306 34.2764 8.84375 -1.85855 34.2109 8.79702 -1.83854 34.1409 8.7597 -1.84332 34.0665 8.73076 -1.87319 33.988 8.70925 -1.92849 33.9057 8.69432 -2.00957 33.8197 8.68522 -2.11682 33.7301 8.68124 -2.25068 33.637 8.68175 -2.41159 33.5407 8.68619 -2.60004 33.4412 8.69402 -2.81656 33.3386 8.70479 -3.06171 22.7904 6.46328 -3.13537 23.6708 6.71515 -3.0918 24.526 6.99349 -3.0444 25.3585 7.29194 -2.99316 26.1701 7.60522 -2.93808 26.9625 7.92894 -2.87916 27.7371 8.25939 -2.81643 28.4952 8.59346 -2.74992 29.2376 8.92851 -2.67966 29.9653 9.2623 -2.60571 30.6791 9.59288 -2.52814 31.3797 9.91862 -2.44701 32.0676 10.2381 -2.36242 32.7433 10.5501 -2.27446 33.4073 10.8535 -2.18323 33.7219 10.9597 -2.07854 33.6905 10.8842 -1.98098 33.653 10.8187 -1.90791 33.6097 10.7621 -1.85957 33.561 10.7133 -1.83626 33.5072 10.6713 -1.83828 33.4486 10.6352 -1.86595 33.3853 10.6042 -1.91966 33.3177 10.5777 -1.99979 33.2459 10.5549 -2.10678 33.17 10.5354 -2.24109 33.0902 10.5185 -2.40322 33.0066 10.5038 -2.5937 32.9194 10.4909 -2.81312 32.8286 10.4793 -3.06209 21.8853 7.47904 -3.15304 22.7778 7.82892 -3.11429 23.6448 8.19521 -3.07095 24.4883 8.57299 -3.02303 25.3102 8.95819 -2.9705 26.1121 9.34739 -2.91339 26.8952 9.73771 -2.85171 27.6606 10.1267 -2.7855 28.4094 10.5124 -2.7148 29.1424 10.8929 -2.63968 29.8604 11.2668 -2.56021 30.5639 11.6327 -2.47646 31.2535 11.9897 -2.38855 31.9299 12.3366 -2.29656 32.5933 12.6728 -2.20063 32.9142 12.7998 -2.091 32.8968 12.7324 -1.98904 32.8728 12.6721 -1.91197 32.8426 12.6181 -1.86004 32.8066 12.5695 -1.83357 32.7651 12.5253 -1.83289 32.7183 12.485 -1.85837 32.6665 12.4478 -1.9104 32.6099 12.4132 -1.98941 32.5487 12.3806 -2.09587 32.4829 12.3495 -2.23028 32.4129 12.3196 -2.39318 32.3387 12.2903 -2.58516 32.2603 12.2615 -2.80685 32.178 12.2326 -3.05891 20.9821 8.49662 -3.16851 21.8794 8.93252 -3.13406 22.7511 9.37659 -3.09437 23.5991 9.8251 -3.04941 24.425 10.2749 -2.99919 25.2302 10.7234 -2.94371 26.016 11.1684 -2.883 26.7834 11.608 -2.81708 27.5332 12.0406 -2.74602 28.2664 12.4648 -2.66987 28.9835 12.8796 -2.58871 29.6852 13.284 -2.50264 30.372 13.677 -2.41176 31.0444 14.058 -2.3162 31.703 14.4264 -2.21608 32.0261 14.5743 -2.10203 32.0187 14.5156 -1.9961 32.0045 14.4616 -1.91538 31.9838 14.4116 -1.86017 31.957 14.3647 -1.83077 31.9244 14.3204 -1.82756 31.8862 14.2781 -1.85093 31.8427 14.2372 -1.90129 31.794 14.1972 -1.97911 31.7403 14.1578 -2.08488 31.6818 14.1185 -2.21915 31.6186 14.079 -2.3825 31.5509 14.039 -2.57555 31.4787 13.9982 -2.79898 31.4022 13.9562 -3.0535 20.0767 9.51207 -3.18177 20.9724 10.0236 -3.15108 21.8427 10.5366 -3.11457 22.6893 11.0482 -3.07222 23.5136 11.5561 -3.02403 24.3169 12.0583 -2.96999 25.1002 12.5531 -2.91013 25.8646 13.0391 -2.84449 26.6107 13.5152 -2.77312 27.3394 13.9803 -2.69609 28.0513 14.4337 -2.61348 28.747 14.8744 -2.5254 29.4269 15.3021 -2.43195 30.0916 15.716 -2.33327 30.7414 16.1159 -2.22951 31.0632 16.2844 -2.11159 31.0625 16.2348 -2.00218 31.0548 16.1877 -1.91825 31.0405 16.1425 -1.8601 31.02 16.0987 -1.82809 30.9934 16.0557 -1.82258 30.961 16.0131 -1.84399 30.923 15.9704 -1.89278 30.8797 15.9273 -1.96942 30.8311 15.8835 -2.07445 30.7775 15.8386 -2.20843 30.7189 15.7923 -2.37199 30.6554 15.7445 -2.56578 30.5872 15.6948 -2.79053 30.5144 15.6432 -3.04698 19.1661 10.5224 -3.19281 20.0545 11.1006 -3.16531 20.9178 11.6746 -3.1315 21.7577 12.2425 -3.09137 22.5753 12.8026 -3.04489 23.3718 13.3532 -2.99208 24.148 13.8934 -2.93296 24.9049 14.422 -2.86757 25.6432 14.9383 -2.79595 26.3634 15.4414 -2.71819 27.0662 15.9309 -2.63437 27.7521 16.4061 -2.5446 28.4216 16.8668 -2.44899 29.075 17.3124 -2.34769 29.7128 17.7428 -2.24084 30.0301 17.9315 -2.11967 30.0331 17.8909 -2.00729 30.0292 17.8509 -1.92062 30.0187 17.8112 -1.85996 30.0019 17.7712 -1.82567 29.9789 17.7305 -1.81816 29.9501 17.6889 -1.83786 29.9155 17.6459 -1.88523 29.8755 17.6014 -1.96078 29.83 17.555 -2.06508 29.7793 17.5065 -2.1987 29.7234 17.4558 -2.36