<?xml version="1.0"?> 
<VTKFile type="StructuredGrid" version="0.1"> 
<StructuredGrid WholeExtent="0 29 0 29 0 29"> 
<Piece Extent="0 29 0 29 0 29"> 
<PointData>
<DataArray type="Float32" Name="efield" format="ascii" NumberOfComponents="3"> 
1.64713e-12 -7.91594 -8.79466 0.229208 -7.59922 -8.86152 0.461542 -7.28563 -8.92362 0.697001 -6.97516 -8.98093 0.935585 -6.66782 -9.03347 1.17729 -6.3636 -9.08123 1.42213 -6.06251 -9.12422 1.67009 -5.76454 -9.16243 1.92118 -5.4697 -9.19586 2.17539 -5.17799 -9.22452 2.43272 -4.8894 -9.2484 2.69319 -4.60393 -9.26751 2.95677 -4.32159 -9.28183 3.22349 -4.04238 -9.29139 3.49332 -3.76629 -9.29616 3.76629 -3.49332 -9.29616 4.04238 -3.22349 -9.29139 4.32159 -2.95677 -9.28183 4.60393 -2.69319 -9.26751 4.8894 -2.43272 -9.2484 5.17799 -2.17539 -9.22452 5.4697 -1.92118 -9.19586 5.76454 -1.67009 -9.16243 6.06251 -1.42213 -9.12422 6.3636 -1.17729 -9.08123 6.66782 -0.935585 -9.03347 6.97516 -0.697001 -8.98093 7.28563 -0.461542 -8.92362 7.59922 -0.229208 -8.86152 7.91594 1.51315e-11 -8.79466 -0.229208 -7.59922 -8.86152 1.03164e-12 -7.28854 -8.95634 0.232118 -6.98077 -9.04438 0.467146 -6.6759 -9.12564 0.705084 -6.37395 -9.20014 0.945931 -6.0749 -9.26786 1.18969 -5.77877 -9.32881 1.43636 -5.48554 -9.38299 1.68593 -5.19523 -9.4304 1.93842 -4.90783 -9.47103 2.19382 -4.62333 -9.50489 2.45212 -4.34174 -9.53198 2.71334 -4.06307 -9.5523 2.97747 -3.7873 -9.56584 3.2445 -3.51445 -9.57262 3.51445 -3.2445 -9.57262 3.7873 -2.97747 -9.56584 4.06307 -2.71334 -9.5523 4.34174 -2.45212 -9.53198 4.62333 -2.19382 -9.50489 4.90783 -1.93842 -9.47103 5.19523 -1.68593 -9.4304 5.48554 -1.43636 -9.38299 5.77877 -1.18969 -9.32881 6.0749 -0.945931 -9.26786 6.37395 -0.705084 -9.20014 6.6759 -0.467146 -9.12564 6.98077 -0.232118 -9.04438 7.28854 1.34502e-11 -8.95634 7.59922 0.229208 -8.86152 -0.461542 -7.28563 -8.92362 -0.232118 -6.98077 -9.04438 5.28836e-13 -6.6786 -9.15651 0.234812 -6.37912 -9.26002 0.472319 -6.08234 -9.35491 0.71252 -5.78825 -9.44116 0.955415 -5.49686 -9.5188 1.201 -5.20816 -9.5878 1.44929 -4.92216 -9.64818 1.70027 -4.63885 -9.69994 1.95394 -4.35823 -9.74307 2.21031 -4.08031 -9.77757 2.46937 -3.80509 -9.80345 2.73112 -3.53255 -9.8207 2.99557 -3.26272 -9.82932 3.26272 -2.99557 -9.82932 3.53255 -2.73112 -9.8207 3.80509 -2.46937 -9.80345 4.08031 -2.21031 -9.77757 4.35823 -1.95394 -9.74307 4.63885 -1.70027 -9.69994 4.92216 -1.44929 -9.64818 5.20816 -1.201 -9.5878 5.49686 -0.955415 -9.5188 5.78825 -0.71252 -9.44116 6.08234 -0.472319 -9.35491 6.37912 -0.234812 -9.26002 6.6786 1.18903e-11 -9.15651 6.98077 0.232118 -9.04438 7.28563 0.461542 -8.92362 -0.697001 -6.97516 -8.98093 -0.467146 -6.6759 -9.12564 -0.234812 -6.37912 -9.26002 1.40707e-13 -6.08482 -9.38406 0.237291 -5.793 -9.49777 0.477061 -5.50365 -9.60113 0.71931 -5.21678 -9.69416 0.964037 -4.9324 -9.77686 1.21124 -4.65049 -9.84921 1.46093 -4.37106 -9.91123 1.71309 -4.09411 -9.96292 1.96773 -3.81964 -10.0043 2.22485 -3.54764 -10.0353 2.48445 -3.27813 -10.0559 2.74653 -3.01109 -10.0663 3.01109 -2.74653 -10.0663 3.27813 -2.48445 -10.0559 3.54764 -2.22485 -10.0353 3.81964 -1.96773 -10.0043 4.09411 -1.71309 -9.96292 4.37106 -1.46093 -9.91123 4.65049 -1.21124 -9.84921 4.9324 -0.964037 -9.77686 5.21678 -0.71931 -9.69416 5.50365 -0.477061 -9.60113 5.793 -0.237291 -9.49777 6.08482 1.04545e-11 -9.38406 6.37912 0.234812 -9.26002 6.6759 0.467146 -9.12564 6.97516 0.697001 -8.98093 -0.935585 -6.66782 -9.03347 -0.705084 -6.37395 -9.20014 -0.472319 -6.08234 -9.35491 -0.237291 -5.793 -9.49777 -1.32176e-13 -5.50591 -9.62872 0.239554 -5.2211 -9.74777 0.481372 -4.93854 -9.85492 0.725453 -4.65825 -9.95016 0.971797 -4.38022 -10.0335 1.2204 -4.10445 -10.1049 1.47127 -3.83095 -10.1644 1.72441 -3.55971 -10.2121 1.9798 -3.29074 -10.2478 2.23746 -3.02402 -10.2716 2.49739 -2.75957 -10.2835 2.75957 -2.49739 -10.2835 3.02402 -2.23746 -10.2716 3.29074 -1.9798 -10.2478 3.55971 -1.72441 -10.2121 3.83095 -1.47127 -10.1644 4.10445 -1.2204 -10.1049 4.38022 -0.971797 -10.0335 4.65825 -0.725453 -9.95016 4.93854 -0.481372 -9.85492 5.2211 -0.239554 -9.74777 5.50591 9.14016e-12 -9.62872 5.793 0.237291 -9.49777 6.08234 0.472319 -9.35491 6.37395 0.705084 -9.20014 6.66782 0.935585 -9.03347 -1.17729 -6.3636 -9.08123 -0.945931 -6.0749 -9.26786 -0.71252 -5.78825 -9.44116 -0.477061 -5.50365 -9.60113 -0.239554 -5.2211 -9.74777 -2.90786e-13 -4.94059 -9.88108 0.241602 -4.66213 -10.0011 0.485252 -4.38572 -10.1077 0.730949 -4.11135 -10.201 0.978694 -3.83903 -10.281 1.22849 -3.56876 -10.3477 1.48033 -3.30054 -10.401 1.73421 -3.03437 -10.441 1.99015 -2.77024 -10.4676 2.24813 -2.50816 -10.481 2.50816 -2.24813 -10.481 2.77024 -1.99015 -10.4676 3.03437 -1.73421 -10.441 3.30054 -1.48033 -10.401 3.56876 -1.22849 -10.3477 3.83903 -0.978694 -10.281 4.11135 -0.730949 -10.201 4.38572 -0.485252 -10.1077 4.66213 -0.241602 -10.0011 4.94059 7.94922e-12 -9.88108 5.2211 0.239554 -9.74777 5.50365 0.477061 -9.60113 5.78825 0.71252 -9.44116 6.0749 0.945931 -9.26786 6.3636 1.17729 -9.08123 -1.42213 -6.06251 -9.12422 -1.18969 -5.77877 -9.32881 -0.955415 -5.49686 -9.5188 -0.71931 -5.21678 -9.69416 -0.481372 -4.93854 -9.85492 -0.241602 -4.66213 -10.0011 -3.31299e-13 -4.38755 -10.1326 0.243434 -4.1148 -10.2495 0.4887 -3.84388 -10.3518 0.735799 -3.5748 -10.4395 0.984729 -3.30755 -10.5125 1.23549 -3.04213 -10.571 1.48809 -2.77854 -10.6148 1.74251 -2.51679 -10.6441 1.99877 -2.25686 -10.6587 2.25686 -1.99877 -10.6587 2.51679 -1.74251 -10.6441 2.77854 -1.48809 -10.6148 3.04213 -1.23549 -10.571 3.30755 -0.984729 -10.5125 3.5748 -0.735799 -10.4395 3.84388 -0.4887 -10.3518 4.1148 -0.243434 -10.2495 4.38755 6.88307e-12 -10.1326 4.66213 0.241602 -10.0011 4.93854 0.481372 -9.85492 5.21678 0.71931 -9.69416 5.49686 0.955415 -9.5188 5.77877 1.18969 -9.32881 6.06251 1.42213 -9.12422 -1.67009 -5.76454 -9.16243 -1.43636 -5.48554 -9.38299 -1.201 -5.20816 -9.5878 -0.964037 -4.9324 -9.77686 -0.725453 -4.65825 -9.95016 -0.485252 -4.38572 -10.1077 -0.243434 -4.1148 -10.2495 -2.54658e-13 -3.8455 -10.3755 0.245051 -3.57782 -10.4858 0.491718 -3.31175 -10.5803 0.740002 -3.0473 -10.6591 0.989902 -2.78447 -10.7221 1.24142 -2.52325 -10.7694 1.49455 -2.26365 -10.8009 1.7493 -2.00567 -10.8167 2.00567 -1.7493 -10.8167 2.26365 -1.49455 -10.8009 2.52325 -1.24142 -10.7694 2.78447 -0.989902 -10.7221 3.0473 -0.740002 -10.6591 3.31175 -0.491718 -10.5803 3.57782 -0.245051 -10.4858 3.8455 5.94178e-12 -10.3755 4.1148 0.243434 -10.2495 4.38572 0.485252 -10.1077 4.65825 0.725453 -9.95016 4.9324 0.964037 -9.77686 5.20816 1.201 -9.5878 5.48554 1.43636 -9.38299 5.76454 1.67009 -9.16243 -1.92118 -5.4697 -9.19586 -1.68593 -5.19523 -9.4304 -1.44929 -4.92216 -9.64818 -1.21124 -4.65049 -9.84921 -0.971797 -4.38022 -10.0335 -0.730949 -4.11135 -10.201 -0.4887 -3.84388 -10.3518 -0.245051 -3.57782 -10.4858 -5.95557e-14 -3.31315 -10.6031 0.246452 -3.04989 -10.7036 0.494304 -2.78803 -10.7874 0.743558 -2.52756 -10.8544 0.994213 -2.2685 -10.9046 1.24627 -2.01084 -10.9381 1.49973 -1.75458 -10.9549 1.75458 -1.49973 -10.9549 2.01084 -1.24627 -10.9381 2.2685 -0.994213 -10.9046 2.52756 -0.743558 -10.8544 2.78803 -0.494304 -10.7874 3.04989 -0.246452 -10.7036 3.31315 5.12597e-12 -10.6031 3.57782 0.245051 -10.4858 3.84388 0.4887 -10.3518 4.11135 0.730949 -10.201 4.38022 0.971797 -10.0335 4.65049 1.21124 -9.84921 4.92216 1.44929 -9.64818 5.19523 1.68593 -9.4304 5.4697 1.92118 -9.19586 -2.17539 -5.17799 -9.22452 -1.93842 -4.90783 -9.47103 -1.70027 -4.63885 -9.69994 -1.46093 -4.37106 -9.91123 -1.2204 -4.10445 -10.1049 -0.978694 -3.83903 -10.281 -0.735799 -3.5748 -10.4395 -0.491718 -3.31175 -10.5803 -0.246452 -3.04989 -10.7036 2.54702e-13 -2.78921 -10.8092 0.247637 -2.52972 -10.8973 0.49646 -2.27141 -10.9677 0.746468 -2.01429 -11.0205 0.997662 -1.75836 -11.0558 1.25004 -1.50361 -11.0734 1.50361 -1.25004 -11.0734 1.75836 -0.997662 -11.0558 2.01429 -0.746468 -11.0205 2.27141 -0.49646 -10.9677 2.52972 -0.247637 -10.8973 2.78921 4.43704e-12 -10.8092 3.04989 0.246452 -10.7036 3.31175 0.491718 -10.5803 3.5748 0.735799 -10.4395 3.83903 0.978694 -10.281 4.10445 1.2204 -10.1049 4.37106 1.46093 -9.91123 4.63885 1.70027 -9.69994 4.90783 1.93842 -9.47103 5.17799 2.17539 -9.22452 -2.43272 -4.8894 -9.2484 -2.19382 -4.62333 -9.50489 -1.95394 -4.35823 -9.74307 -1.71309 -4.09411 -9.96292 -1.47127 -3.83095 -10.1644 -1.22849 -3.56876 -10.3477 -0.984729 -3.30755 -10.5125 -0.740002 -3.0473 -10.6591 -0.494304 -2.78803 -10.7874 -0.247637 -2.52972 -10.8973 6.88977e-13 -2.27238 -10.9889 0.248607 -2.01602 -11.0622 0.498184 -1.76062 -11.1171 0.748731 -1.50619 -11.1538 1.00025 -1.25274 -11.1721 1.25274 -1.00025 -11.1721 1.50619 -0.748731 -11.1538 1.76062 -0.498184 -11.1171 2.01602 -0.248607 -11.0622 2.27238 3.87438e-12 -10.9889 2.52972 0.247637 -10.8973 2.78803 0.494304 -10.7874 3.0473 0.740002 -10.6591 3.30755 0.984729 -10.5125 3.56876 1.22849 -10.3477 3.83095 1.47127 -10.1644 4.09411 1.71309 -9.96292 4.35823 1.95394 -9.74307 4.62333 2.19382 -9.50489 4.8894 2.43272 -9.2484 -2.69319 -4.60393 -9.26751 -2.45212 -4.34174 -9.53198 -2.21031 -4.08031 -9.77757 -1.96773 -3.81964 -10.0043 -1.72441 -3.55971 -10.2121 -1.48033 -3.30054 -10.401 -1.23549 -3.04213 -10.571 -0.989902 -2.78447 -10.7221 -0.743558 -2.52756 -10.8544 -0.49646 -2.27141 -10.9677 -0.248607 -2.01602 -11.0622 1.24466e-12 -1.76137 -11.1377 0.249362 -1.50749 -11.1944 0.499477 -1.25435 -11.2322 0.750348 -1.00197 -11.2511 1.00197 -0.750348 -11.2511 1.25435 -0.499477 -11.2322 1.50749 -0.249362 -11.1944 1.76137 3.4394e-12 -11.1377 2.01602 0.248607 -11.0622 2.27141 0.49646 -10.9677 2.52756 0.743558 -10.8544 2.78447 0.989902 -10.7221 3.04213 1.23549 -10.571 3.30054 1.48033 -10.401 3.55971 1.72441 -10.2121 3.81964 1.96773 -10.0043 4.08031 2.21031 -9.77757 4.34174 2.45212 -9.53198 4.60393 2.69319 -9.26751 -2.95677 -4.32159 -9.28183 -2.71334 -4.06307 -9.5523 -2.46937 -3.80509 -9.80345 -2.22485 -3.54764 -10.0353 -1.9798 -3.29074 -10.2478 -1.73421 -3.03437 -10.441 -1.48809 -2.77854 -10.6148 -1.24142 -2.52325 -10.7694 -0.994213 -2.2685 -10.9046 -0.746468 -2.01429 -11.0205 -0.498184 -1.76062 -11.1171 -0.249362 -1.50749 -11.1944 1.92167e-12 -1.25489 -11.2524 0.2499 -1.00283 -11.291 0.50034 -0.751318 -11.3103 0.751318 -0.50034 -11.3103 1.00283 -0.2499 -11.291 1.25489 3.13276e-12 -11.2524 1.50749 0.249362 -11.1944 1.76062 0.498184 -11.1171 2.01429 0.746468 -11.0205 2.2685 0.994213 -10.9046 2.52325 1.24142 -10.7694 2.77854 1.48809 -10.6148 3.03437 1.73421 -10.441 3.29074 1.9798 -10.2478 3.54764 2.22485 -10.0353 3.80509 2.46937 -9.80345 4.06307 2.71334 -9.5523 4.32159 2.95677 -9.28183 -3.22349 -4.04238 -9.29139 -2.97747 -3.7873 -9.56584 -2.73112 -3.53255 -9.8207 -2.48445 -3.27813 -10.0559 -2.23746 -3.02402 -10.2716 -1.99015 -2.77024 -10.4676 -1.74251 -2.51679 -10.6441 -1.49455 -2.26365 -10.8009 -1.24627 -2.01084 -10.9381 -0.997662 -1.75836 -11.0558 -0.748731 -1.50619 -11.1538 -0.499477 -1.25435 -11.2322 -0.2499 -1.00283 -11.291 2.72139e-12 -0.751641 -11.3302 0.250224 -0.500771 -11.3498 0.500771 -0.250224 -11.3498 0.751641 2.95579e-12 -11.3302 1.00283 0.2499 -11.291 1.25435 0.499477 -11.2322 1.50619 0.748731 -11.1538 1.75836 0.997662 -11.0558 2.01084 1.24627 -10.9381 2.26365 1.49455 -10.8009 2.51679 1.74251 -10.6441 2.77024 1.99015 -10.4676 3.02402 2.23746 -10.2716 3.27813 2.48445 -10.0559 3.53255 2.73112 -9.8207 3.7873 2.97747 -9.56584 4.04238 3.22349 -9.29139 -3.49332 -3.76629 -9.29616 -3.2445 -3.51445 -9.57262 -2.99557 -3.26272 -9.82932 -2.74653 -3.01109 -10.0663 -2.49739 -2.75957 -10.2835 -2.24813 -2.50816 -10.481 -1.99877 -2.25686 -10.6587 -1.7493 -2.00567 -10.8167 -1.49973 -1.75458 -10.9549 -1.25004 -1.50361 -11.0734 -1.00025 -1.25274 -11.1721 -0.750348 -1.00197 -11.2511 -0.50034 -0.751318 -11.3103 -0.250224 -0.500771 -11.3498 3.64462e-12 -0.250331 -11.3696 0.250331 2.90864e-12 -11.3696 0.500771 0.250224 -11.3498 0.751318 0.50034 -11.3103 1.00197 0.750348 -11.2511 1.25274 1.00025 -11.1721 1.50361 1.25004 -11.0734 1.75458 1.49973 -10.9549 2.00567 1.7493 -10.8167 2.25686 1.99877 -10.6587 2.50816 2.24813 -10.481 2.75957 2.49739 -10.2835 3.01109 2.74653 -10.0663 3.26272 2.99557 -9.82932 3.51445 3.2445 -9.57262 3.76629 3.49332 -9.29616 -3.76629 -3.49332 -9.29616 -3.51445 -3.2445 -9.57262 -3.26272 -2.99557 -9.82932 -3.01109 -2.74653 -10.0663 -2.75957 -2.49739 -10.2835 -2.50816 -2.24813 -10.481 -2.25686 -1.99877 -10.6587 -2.00567 -1.7493 -10.8167 -1.75458 -1.49973 -10.9549 -1.50361 -1.25004 -11.0734 -1.25274 -1.00025 -11.1721 -1.00197 -0.750348 -11.2511 -0.751318 -0.50034 -11.3103 -0.500771 -0.250224 -11.3498 -0.250331 3.00956e-12 -11.3696 3.54814e-12 0.250331 -11.3696 0.250224 0.500771 -11.3498 0.50034 0.751318 -11.3103 0.750348 1.00197 -11.2511 1.00025 1.25274 -11.1721 1.25004 1.50361 -11.0734 1.49973 1.75458 -10.9549 1.7493 2.00567 -10.8167 1.99877 2.25686 -10.6587 2.24813 2.50816 -10.481 2.49739 2.75957 -10.2835 2.74653 3.01109 -10.0663 2.99557 3.26272 -9.82932 3.2445 3.51445 -9.57262 3.49332 3.76629 -9.29616 -4.04238 -3.22349 -9.29139 -3.7873 -2.97747 -9.56584 -3.53255 -2.73112 -9.8207 -3.27813 -2.48445 -10.0559 -3.02402 -2.23746 -10.2716 -2.77024 -1.99015 -10.4676 -2.51679 -1.74251 -10.6441 -2.26365 -1.49455 -10.8009 -2.01084 -1.24627 -10.9381 -1.75836 -0.997662 -11.0558 -1.50619 -0.748731 -11.1538 -1.25435 -0.499477 -11.2322 -1.00283 -0.2499 -11.291 -0.751641 3.28881e-12 -11.3302 -0.500771 0.250224 -11.3498 -0.250224 0.500771 -11.3498 2.46187e-12 0.751641 -11.3302 0.2499 1.00283 -11.291 0.499477 1.25435 -11.2322 0.748731 1.50619 -11.1538 0.997662 1.75836 -11.0558 1.24627 2.01084 -10.9381 1.49455 2.26365 -10.8009 1.74251 2.51679 -10.6441 1.99015 2.77024 -10.4676 2.23746 3.02402 -10.2716 2.48445 3.27813 -10.0559 2.73112 3.53255 -9.8207 2.97747 3.7873 -9.56584 3.22349 4.04238 -9.29139 -4.32159 -2.95677 -9.28183 -4.06307 -2.71334 -9.5523 -3.80509 -2.46937 -9.80345 -3.54764 -2.22485 -10.0353 -3.29074 -1.9798 -10.2478 -3.03437 -1.73421 -10.441 -2.77854 -1.48809 -10.6148 -2.52325 -1.24142 -10.7694 -2.2685 -0.994213 -10.9046 -2.01429 -0.746468 -11.0205 -1.76062 -0.498184 -11.1171 -1.50749 -0.249362 -11.1944 -1.25489 3.74026e-12 -11.2524 -1.00283 0.2499 -11.291 -0.751318 0.50034 -11.3103 -0.50034 0.751318 -11.3103 -0.2499 1.00283 -11.291 1.54024e-12 1.25489 -11.2524 0.249362 1.50749 -11.1944 0.498184 1.76062 -11.1171 0.746468 2.01429 -11.0205 0.994213 2.2685 -10.9046 1.24142 2.52325 -10.7694 1.48809 2.77854 -10.6148 1.73421 3.03437 -10.441 1.9798 3.29074 -10.2478 2.22485 3.54764 -10.0353 2.46937 3.80509 -9.80345 2.71334 4.06307 -9.5523 2.95677 4.32159 -9.28183 -4.60393 -2.69319 -9.26751 -4.34174 -2.45212 -9.53198 -4.08031 -2.21031 -9.77757 -3.81964 -1.96773 -10.0043 -3.55971 -1.72441 -10.2121 -3.30054 -1.48033 -10.401 -3.04213 -1.23549 -10.571 -2.78447 -0.989902 -10.7221 -2.52756 -0.743558 -10.8544 -2.27141 -0.49646 -10.9677 -2.01602 -0.248607 -11.0622 -1.76137 4.36562e-12 -11.1377 -1.50749 0.249362 -11.1944 -1.25435 0.499477 -11.2322 -1.00197 0.750348 -11.2511 -0.750348 1.00197 -11.2511 -0.499477 1.25435 -11.2322 -0.249362 1.50749 -11.1944 7.83512e-13 1.76137 -11.1377 0.248607 2.01602 -11.0622 0.49646 2.27141 -10.9677 0.743558 2.52756 -10.8544 0.989902 2.78447 -10.7221 1.23549 3.04213 -10.571 1.48033 3.30054 -10.401 1.72441 3.55971 -10.2121 1.96773 3.81964 -10.0043 2.21031 4.08031 -9.77757 2.45212 4.34174 -9.53198 2.69319 4.60393 -9.26751 -4.8894 -2.43272 -9.2484 -4.62333 -2.19382 -9.50489 -4.35823 -1.95394 -9.74307 -4.09411 -1.71309 -9.96292 -3.83095 -1.47127 -10.1644 -3.56876 -1.22849 -10.3477 -3.30755 -0.984729 -10.5125 -3.0473 -0.740002 -10.6591 -2.78803 -0.494304 -10.7874 -2.52972 -0.247637 -10.8973 -2.27238 5.16603e-12 -10.9889 -2.01602 0.248607 -11.0622 -1.76062 0.498184 -11.1171 -1.50619 0.748731 -11.1538 -1.25274 1.00025 -11.1721 -1.00025 1.25274 -11.1721 -0.748731 1.50619 -11.1538 -0.498184 1.76062 -11.1171 -0.248607 2.01602 -11.0622 1.92957e-13 2.27238 -10.9889 0.247637 2.52972 -10.8973 0.494304 2.78803 -10.7874 0.740002 3.0473 -10.6591 0.984729 3.30755 -10.5125 1.22849 3.56876 -10.3477 1.47127 3.83095 -10.1644 1.71309 4.09411 -9.96292 1.95394 4.35823 -9.74307 2.19382 4.62333 -9.50489 2.43272 4.8894 -9.2484 -5.17799 -2.17539 -9.22452 -4.90783 -1.93842 -9.47103 -4.63885 -1.70027 -9.69994 -4.37106 -1.46093 -9.91123 -4.10445 -1.2204 -10.1049 -3.83903 -0.978694 -10.281 -3.5748 -0.735799 -10.4395 -3.31175 -0.491718 -10.5803 -3.04989 -0.246452 -10.7036 -2.78921 6.14331e-12 -10.8092 -2.52972 0.247637 -10.8973 -2.27141 0.49646 -10.9677 -2.01429 0.746468 -11.0205 -1.75836 0.997662 -11.0558 -1.50361 1.25004 -11.0734 -1.25004 1.50361 -11.0734 -0.997662 1.75836 -11.0558 -0.746468 2.01429 -11.0205 -0.49646 2.27141 -10.9677 -0.247637 2.52972 -10.8973 -2.32009e-13 2.78921 -10.8092 0.246452 3.04989 -10.7036 0.491718 3.31175 -10.5803 0.735799 3.5748 -10.4395 0.978694 3.83903 -10.281 1.2204 4.10445 -10.1049 1.46093 4.37106 -9.91123 1.70027 4.63885 -9.69994 1.93842 4.90783 -9.47103 2.17539 5.17799 -9.22452 -5.4697 -1.92118 -9.19586 -5.19523 -1.68593 -9.4304 -4.92216 -1.44929 -9.64818 -4.65049 -1.21124 -9.84921 -4.38022 -0.971797 -10.0335 -4.11135 -0.730949 -10.201 -3.84388 -0.4887 -10.3518 -3.57782 -0.245051 -10.4858 -3.31315 7.29752e-12 -10.6031 -3.04989 0.246452 -10.7036 -2.78803 0.494304 -10.7874 -2.52756 0.743558 -10.8544 -2.2685 0.994213 -10.9046 -2.01084 1.24627 -10.9381 -1.75458 1.49973 -10.9549 -1.49973 1.75458 -10.9549 -1.24627 2.01084 -10.9381 -0.994213 2.2685 -10.9046 -0.743558 2.52756 -10.8544 -0.494304 2.78803 -10.7874 -0.246452 3.04989 -10.7036 -4.89886e-13 3.31315 -10.6031 0.245051 3.57782 -10.4858 0.4887 3.84388 -10.3518 0.730949 4.11135 -10.201 0.971797 4.38022 -10.0335 1.21124 4.65049 -9.84921 1.44929 4.92216 -9.64818 1.68593 5.19523 -9.4304 1.92118 5.4697 -9.19586 -5.76454 -1.67009 -9.16243 -5.48554 -1.43636 -9.38299 -5.20816 -1.201 -9.5878 -4.9324 -0.964037 -9.77686 -4.65825 -0.725453 -9.95016 -4.38572 -0.485252 -10.1077 -4.1148 -0.243434 -10.2495 -3.8455 8.6324e-12 -10.3755 -3.57782 0.245051 -10.4858 -3.31175 0.491718 -10.5803 -3.0473 0.740002 -10.6591 -2.78447 0.989902 -10.7221 -2.52325 1.24142 -10.7694 -2.26365 1.49455 -10.8009 -2.00567 1.7493 -10.8167 -1.7493 2.00567 -10.8167 -1.49455 2.26365 -10.8009 -1.24142 2.52325 -10.7694 -0.989902 2.78447 -10.7221 -0.740002 3.0473 -10.6591 -0.491718 3.31175 -10.5803 -0.245051 3.57782 -10.4858 -5.80092e-13 3.8455 -10.3755 0.243434 4.1148 -10.2495 0.485252 4.38572 -10.1077 0.725453 4.65825 -9.95016 0.964037 4.9324 -9.77686 1.201 5.20816 -9.5878 1.43636 5.48554 -9.38299 1.67009 5.76454 -9.16243 -6.06251 -1.42213 -9.12422 -5.77877 -1.18969 -9.32881 -5.49686 -0.955415 -9.5188 -5.21678 -0.71931 -9.69416 -4.93854 -0.481372 -9.85492 -4.66213 -0.241602 -10.0011 -4.38755 1.01464e-11 -10.1326 -4.1148 0.243434 -10.2495 -3.84388 0.4887 -10.3518 -3.5748 0.735799 -10.4395 -3.30755 0.984729 -10.5125 -3.04213 1.23549 -10.571 -2.77854 1.48809 -10.6148 -2.51679 1.74251 -10.6441 -2.25686 1.99877 -10.6587 -1.99877 2.25686 -10.6587 -1.74251 2.51679 -10.6441 -1.48809 2.77854 -10.6148 -1.23549 3.04213 -10.571 -0.984729 3.30755 -10.5125 -0.735799 3.5748 -10.4395 -0.4887 3.84388 -10.3518 -0.243434 4.1148 -10.2495 -5.02931e-13 4.38755 -10.1326 0.241602 4.66213 -10.0011 0.481372 4.93854 -9.85492 0.71931 5.21678 -9.69416 0.955415 5.49686 -9.5188 1.18969 5.77877 -9.32881 1.42213 6.06251 -9.12422 -6.3636 -1.17729 -9.08123 -6.0749 -0.945931 -9.26786 -5.78825 -0.71252 -9.44116 -5.50365 -0.477061 -9.60113 -5.2211 -0.239554 -9.74777 -4.94059 1.1845e-11 -9.88108 -4.66213 0.241602 -10.0011 -4.38572 0.485252 -10.1077 -4.11135 0.730949 -10.201 -3.83903 0.978694 -10.281 -3.56876 1.22849 -10.3477 -3.30054 1.48033 -10.401 -3.03437 1.73421 -10.441 -2.77024 1.99015 -10.4676 -2.50816 2.24813 -10.481 -2.24813 2.50816 -10.481 -1.99015 2.77024 -10.4676 -1.73421 3.03437 -10.441 -1.48033 3.30054 -10.401 -1.22849 3.56876 -10.3477 -0.978694 3.83903 -10.281 -0.730949 4.11135 -10.201 -0.485252 4.38572 -10.1077 -0.241602 4.66213 -10.0011 -2.56906e-13 4.94059 -9.88108 0.239554 5.2211 -9.74777 0.477061 5.50365 -9.60113 0.71252 5.78825 -9.44116 0.945931 6.0749 -9.26786 1.17729 6.3636 -9.08123 -6.66782 -0.935585 -9.03347 -6.37395 -0.705084 -9.20014 -6.08234 -0.472319 -9.35491 -5.793 -0.237291 -9.49777 -5.50591 1.37261e-11 -9.62872 -5.2211 0.239554 -9.74777 -4.93854 0.481372 -9.85492 -4.65825 0.725453 -9.95016 -4.38022 0.971797 -10.0335 -4.10445 1.2204 -10.1049 -3.83095 1.47127 -10.1644 -3.55971 1.72441 -10.2121 -3.29074 1.9798 -10.2478 -3.02402 2.23746 -10.2716 -2.75957 2.49739 -10.2835 -2.49739 2.75957 -10.2835 -2.23746 3.02402 -10.2716 -1.9798 3.29074 -10.2478 -1.72441 3.55971 -10.2121 -1.47127 3.83095 -10.1644 -1.2204 4.10445 -10.1049 -0.971797 4.38022 -10.0335 -0.725453 4.65825 -9.95016 -0.481372 4.93854 -9.85492 -0.239554 5.2211 -9.74777 1.57652e-13 5.50591 -9.62872 0.237291 5.793 -9.49777 0.472319 6.08234 -9.35491 0.705084 6.37395 -9.20014 0.935585 6.66782 -9.03347 -6.97516 -0.697001 -8.98093 -6.6759 -0.467146 -9.12564 -6.37912 -0.234812 -9.26002 -6.08482 1.5794e-11 -9.38406 -5.793 0.237291 -9.49777 -5.50365 0.477061 -9.60113 -5.21678 0.71931 -9.69416 -4.9324 0.964037 -9.77686 -4.65049 1.21124 -9.84921 -4.37106 1.46093 -9.91123 -4.09411 1.71309 -9.96292 -3.81964 1.96773 -10.0043 -3.54764 2.22485 -10.0353 -3.27813 2.48445 -10.0559 -3.01109 2.74653 -10.0663 -2.74653 3.01109 -10.0663 -2.48445 3.27813 -10.0559 -2.22485 3.54764 -10.0353 -1.96773 3.81964 -10.0043 -1.71309 4.09411 -9.96292 -1.46093 4.37106 -9.91123 -1.21124 4.65049 -9.84921 -0.964037 4.9324 -9.77686 -0.71931 5.21678 -9.69416 -0.477061 5.50365 -9.60113 -0.237291 5.793 -9.49777 7.41185e-13 6.08482 -9.38406 0.234812 6.37912 -9.26002 0.467146 6.6759 -9.12564 0.697001 6.97516 -8.98093 -7.28563 -0.461542 -8.92362 -6.98077 -0.232118 -9.04438 -6.6786 1.80481e-11 -9.15651 -6.37912 0.234812 -9.26002 -6.08234 0.472319 -9.35491 -5.78825 0.71252 -9.44116 -5.49686 0.955415 -9.5188 -5.20816 1.201 -9.5878 -4.92216 1.44929 -9.64818 -4.63885 1.70027 -9.69994 -4.35823 1.95394 -9.74307 -4.08031 2.21031 -9.77757 -3.80509 2.46937 -9.80345 -3.53255 2.73112 -9.8207 -3.26272 2.99557 -9.82932 -2.99557 3.26272 -9.82932 -2.73112 3.53255 -9.8207 -2.46937 3.80509 -9.80345 -2.21031 4.08031 -9.77757 -1.95394 4.35823 -9.74307 -1.70027 4.63885 -9.69994 -1.44929 4.92216 -9.64818 -1.201 5.20816 -9.5878 -0.955415 5.49686 -9.5188 -0.71252 5.78825 -9.44116 -0.472319 6.08234 -9.35491 -0.234812 6.37912 -9.26002 1.49525e-12 6.6786 -9.15651 0.232118 6.98077 -9.04438 0.461542 7.28563 -8.92362 -7.59922 -0.229208 -8.86152 -7.28854 2.04912e-11 -8.95634 -6.98077 0.232118 -9.04438 -6.6759 0.467146 -9.12564 -6.37395 0.705084 -9.20014 -6.0749 0.945931 -9.26786 -5.77877 1.18969 -9.32881 -5.48554 1.43636 -9.38299 -5.19523 1.68593 -9.4304 -4.90783 1.93842 -9.47103 -4.62333 2.19382 -9.50489 -4.34174 2.45212 -9.53198 -4.06307 2.71334 -9.5523 -3.7873 2.97747 -9.56584 -3.51445 3.2445 -9.57262 -3.2445 3.51445 -9.57262 -2.97747 3.7873 -9.56584 -2.71334 4.06307 -9.5523 -2.45212 4.34174 -9.53198 -2.19382 4.62333 -9.50489 -1.93842 4.90783 -9.47103 -1.68593 5.19523 -9.4304 -1.43636 5.48554 -9.38299 -1.18969 5.77877 -9.32881 -0.945931 6.0749 -9.26786 -0.705084 6.37395 -9.20014 -0.467146 6.6759 -9.12564 -0.232118 6.98077 -9.04438 2.42029e-12 7.28854 -8.95634 0.229208 7.59922 -8.86152 -7.91594 2.31242e-11 -8.79466 -7.59922 0.229208 -8.86152 -7.28563 0.461542 -8.92362 -6.97516 0.697001 -8.98093 -6.66782 0.935585 -9.03347 -6.3636 1.17729 -9.08123 -6.06251 1.42213 -9.12422 -5.76454 1.67009 -9.16243 -5.4697 1.92118 -9.19586 -5.17799 2.17539 -9.22452 -4.8894 2.43272 -9.2484 -4.60393 2.69319 -9.26751 -4.32159 2.95677 -9.28183 -4.04238 3.22349 -9.29139 -3.76629 3.49332 -9.29616 -3.49332 3.76629 -9.29616 -3.22349 4.04238 -9.29139 -2.95677 4.32159 -9.28183 -2.69319 4.60393 -9.26751 -2.43272 4.8894 -9.2484 -2.17539 5.17799 -9.22452 -1.92118 5.4697 -9.19586 -1.67009 5.76454 -9.16243 -1.42213 6.06251 -9.12422 -1.17729 6.3636 -9.08123 -0.935585 6.66782 -9.03347 -0.697001 6.97516 -8.98093 -0.461542 7.28563 -8.92362 -0.229208 7.59922 -8.86152 3.5163e-12 7.91594 -8.79466 -6.79012e-13 -7.64933 -16.075 0.294437 -7.41623 -16.1893 0.586683 -7.18094 -16.2955 0.876739 -6.94345 -16.3934 1.1646 -6.70378 -16.4833 1.45028 -6.46191 -16.5649 1.73376 -6.21786 -16.6384 2.01506 -5.97161 -16.7037 2.29416 -5.72317 -16.7609 2.57107 -5.47255 -16.8098 2.8458 -5.21973 -16.8507 3.11833 -4.96472 -16.8833 3.38867 -4.70752 -16.9078 3.65682 -4.44813 -16.9241 3.92278 -4.18655 -16.9323 4.18655 -3.92278 -16.9323 4.44813 -3.65682 -16.9241 4.70752 -3.38867 -16.9078 4.96472 -3.11833 -16.8833 5.21973 -2.8458 -16.8507 5.47255 -2.57107 -16.8098 5.72317 -2.29416 -16.7609 5.97161 -2.01506 -16.7037 6.21786 -1.73376 -16.6384 6.46191 -1.45028 -16.5649 6.70378 -1.1646 -16.4833 6.94345 -0.876739 -16.3934 7.18094 -0.586683 -16.2955 7.41623 -0.294437 -16.1893 7.64933 -3.44835e-13 -16.075 -0.294437 -7.41623 -16.1893 -5.24858e-13 -7.1789 -16.3009 0.292397 -6.93952 -16.4045 0.582755 -6.69811 -16.5001 0.871074 -6.45466 -16.5877 1.15735 -6.20917 -16.6674 1.44159 -5.96164 -16.7391 1.72379 -5.71207 -16.8029 2.00395 -5.46046 -16.8587 2.28208 -5.20681 -16.9065 2.55816 -4.95112 -16.9463 2.8322 -4.6934 -16.9782 3.1042 -4.43363 -17.0021 3.37417 -4.17182 -17.018 3.64209 -3.90798 -17.026 3.90798 -3.64209 -17.026 4.17182 -3.37417 -17.018 4.43363 -3.1042 -17.0021 4.6934 -2.8322 -16.9782 4.95112 -2.55816 -16.9463 5.20681 -2.28208 -16.9065 5.46046 -2.00395 -16.8587 5.71207 -1.72379 -16.8029 5.96164 -1.44159 -16.7391 6.20917 -1.15735 -16.6674 6.45466 -0.871074 -16.5877 6.69811 -0.582755 -16.5001 6.93952 -0.292397 -16.4045 7.1789 1.51112e-13 -16.3009 7.41623 0.294437 -16.1893 -0.586683 -7.18094 -16.2955 -0.292397 -6.93952 -16.4045 -4.04881e-13 -6.69622 -16.5057 0.290509 -6.45104 -16.5991 0.57913 -6.20396 -16.6848 0.865862 -5.95499 -16.7626 1.15071 -5.70414 -16.8327 1.43366 -5.4514 -16.895 1.71473 -5.19677 -16.9495 1.99391 -4.94025 -16.9962 2.2712 -4.68184 -17.0351 2.5466 -4.42154 -17.0663 2.82012 -4.15936 -17.0896 3.09174 -3.89529 -17.1052 3.36148 -3.62933 -17.113 3.62933 -3.36148 -17.113 3.89529 -3.09174 -17.1052 4.15936 -2.82012 -17.0896 4.42154 -2.5466 -17.0663 4.68184 -2.2712 -17.0351 4.94025 -1.99391 -16.9962 5.19677 -1.71473 -16.9495 5.4514 -1.43366 -16.895 5.70414 -1.15071 -16.8327 5.95499 -0.865862 -16.7626 6.20396 -0.57913 -16.6848 6.45104 -0.290509 -16.5991 6.69622 6.02346e-13 -16.5057 6.93952 0.292397 -16.4045 7.18094 0.586683 -16.2955 -0.876739 -6.94345 -16.3934 -0.582755 -6.69811 -16.5001 -0.290509 -6.45104 -16.5991 -3.16246e-13 -6.20222 -16.6905 0.288772 -5.95167 -16.7743 0.575806 -5.69938 -16.8505 0.861103 -5.44535 -16.9191 1.14466 -5.18959 -16.98 1.42649 -4.93209 -17.0333 1.70657 -4.67285 -17.079 1.98492 -4.41188 -17.1171 2.26153 -4.14916 -17.1476 2.5364 -3.88471 -17.1704 2.80954 -3.61853 -17.1857 3.08094 -3.3506 -17.1933 3.3506 -3.08094 -17.1933 3.61853 -2.80954 -17.1857 3.88471 -2.5364 -17.1704 4.14916 -2.26153 -17.1476 4.41188 -1.98492 -17.1171 4.67285 -1.70657 -17.079 4.93209 -1.42649 -17.0333 5.18959 -1.14466 -16.98 5.44535 -0.861103 -16.9191 5.69938 -0.575806 -16.8505 5.95167 -0.288772 -16.7743 6.20222 1.0111e-12 -16.6905 6.45104 0.290509 -16.5991 6.69811 0.582755 -16.5001 6.94345 0.876739 -16.3934 -1.1646 -6.70378 -16.4833 -0.871074 -6.45466 -16.5877 -0.57913 -6.20396 -16.6848 -0.288772 -5.95167 -16.7743 -2.6082e-13 -5.69779 -16.8564 0.287186 -5.44233 -16.9311 0.572785 -5.18528 -16.9982 0.856798 -4.92665 -17.0579 1.13922 -4.66643 -17.1102 1.42007 -4.40462 -17.155 1.69932 -4.14123 -17.1923 1.97699 -3.87625 -17.2221 2.25307 -3.60969 -17.2445 2.52757 -3.34154 -17.2594 2.80048 -3.0718 -17.2669 3.0718 -2.80048 -17.2669 3.34154 -2.52757 -17.2594 3.60969 -2.25307 -17.2445 3.87625 -1.97699 -17.2221 4.14123 -1.69932 -17.1923 4.40462 -1.42007 -17.155 4.66643 -1.13922 -17.1102 4.92665 -0.856798 -17.0579 5.18528 -0.572785 -16.9982 5.44233 -0.287186 -16.9311 5.69779 1.37363e-12 -16.8564 5.95167 0.288772 -16.7743 6.20396 0.57913 -16.6848 6.45466 0.871074 -16.5877 6.70378 1.1646 -16.4833 -1.45028 -6.46191 -16.5649 -1.15735 -6.20917 -16.6674 -0.865862 -5.95499 -16.7626 -0.575806 -5.69938 -16.8505 -0.287186 -5.44233 -16.9311 -2.37706e-13 -5.18385 -17.0043 0.28575 -4.92393 -17.0702 0.570066 -4.66258 -17.1288 0.852946 -4.39979 -17.18 1.13439 -4.13557 -17.224 1.4144 -3.86991 -17.2606 1.69298 -3.60281 -17.2899 1.97012 -3.33429 -17.3119 2.24582 -3.06432 -17.3265 2.52009 -2.79292 -17.3338 2.79292 -2.52009 -17.3338 3.06432 -2.24582 -17.3265 3.33429 -1.97012 -17.3119 3.60281 -1.69298 -17.2899 3.86991 -1.4144 -17.2606 4.13557 -1.13439 -17.224 4.39979 -0.852946 -17.18 4.66258 -0.570066 -17.1288 4.92393 -0.28575 -17.0702 5.18385 1.69182e-12 -17.0043 5.44233 0.287186 -16.9311 5.69938 0.575806 -16.8505 5.95499 0.865862 -16.7626 6.20917 1.15735 -16.6674 6.46191 1.45028 -16.5649 -1.73376 -6.21786 -16.6384 -1.44159 -5.96164 -16.7391 -1.15071 -5.70414 -16.8327 -0.861103 -5.44535 -16.9191 -0.572785 -5.18528 -16.9982 -0.28575 -4.92393 -17.0702 -2.4762e-13 -4.66129 -17.135 0.284466 -4.39737 -17.1925 0.567649 -4.13217 -17.2429 0.849547 -3.86568 -17.2861 1.13016 -3.5979 -17.3221 1.40949 -3.32885 -17.3509 1.68754 -3.05851 -17.3725 1.9643 -2.78688 -17.3869 2.23978 -2.51397 -17.3941 2.51397 -2.23978 -17.3941 2.78688 -1.9643 -17.3869 3.05851 -1.68754 -17.3725 3.32885 -1.40949 -17.3509 3.5979 -1.13016 -17.3221 3.86568 -0.849547 -17.2861 4.13217 -0.567649 -17.2429 4.39737 -0.284466 -17.1925 4.66129 1.96459e-12 -17.135 4.92393 0.28575 -17.0702 5.18528 0.572785 -16.9982 5.44535 0.861103 -16.9191 5.70414 1.15071 -16.8327 5.96164 1.44159 -16.7391 6.21786 1.73376 -16.6384 -2.01506 -5.97161 -16.7037 -1.72379 -5.71207 -16.8029 -1.43366 -5.4514 -16.895 -1.14466 -5.18959 -16.98 -0.856798 -4.92665 -17.0579 -0.570066 -4.66258 -17.1288 -0.284466 -4.39737 -17.1925 -2.90515e-13 -4.13103 -17.2492 0.283333 -3.86356 -17.2988 0.565534 -3.59496 -17.3413 0.846601 -3.32522 -17.3768 1.12654 -3.05435 -17.4051 1.40534 -2.78235 -17.4263 1.68301 -2.50921 -17.4405 1.95954 -2.23494 -17.4476 2.23494 -1.95954 -17.4476 2.50921 -1.68301 -17.4405 2.78235 -1.40534 -17.4263 3.05435 -1.12654 -17.4051 3.32522 -0.846601 -17.3768 3.59496 