<?xml version="1.0"?> 
<VTKFile type="StructuredGrid" version="0.1"> 
<StructuredGrid WholeExtent="0 29 0 29 0 29"> 
<Piece Extent="0 29 0 29 0 29"> 
<PointData>
<DataArray type="Float32" Name="efield" format="ascii" NumberOfComponents="3"> 
11.9473 -0.0537748 -0.223135 12.5067 0.00240562 -0.182886 13.0662 0.0379137 -0.147006 13.6256 0.0540716 -0.11536 14.1851 0.0519349 -0.088021 14.7445 0.0323569 -0.0652734 15.304 -0.00396508 -0.0476153 15.8634 -0.056456 -0.0357655 16.4229 -0.124637 -0.0306727 16.9823 -0.208106 -0.0335256 17.5418 -0.306524 -0.0457669 18.1012 -0.419602 -0.06911 18.6607 -0.547093 -0.105558 19.2201 -0.688782 -0.15743 19.7796 -0.844485 -0.227384 20.6007 -0.921186 -0.299295 21.6834 -0.893422 -0.334495 22.7661 -0.848934 -0.341115 23.8488 -0.791322 -0.322414 24.9315 -0.723776 -0.282121 26.0143 -0.649126 -0.224489 27.097 -0.569899 -0.154364 28.1797 -0.488353 -0.0772638 29.2624 -0.406513 0.00052924 30.3451 -0.326203 0.0718545 31.4278 -0.249065 0.12854 32.5106 -0.176588 0.16124 33.5933 -0.11012 0.159244 34.676 -0.0508849 0.110233 35.7587 -2.50645e-14 -1.81146e-13 11.4772 0.303831 -0.226231 12.0253 0.408939 -0.18136 12.5732 0.492781 -0.142294 13.1207 0.556724 -0.10882 13.6679 0.601884 -0.0809441 14.2147 0.629182 -0.058894 14.7611 0.639386 -0.0431222 15.3069 0.633142 -0.0343121 15.8523 0.610997 -0.0333862 16.397 0.573421 -0.0415168 16.9412 0.520816 -0.0601401 17.4848 0.453534 -0.0909734 18.0278 0.371879 -0.136035 18.5701 0.276121 -0.19767 19.1118 0.166498 -0.278579 19.959 0.161121 -0.359369 21.1092 0.278506 -0.398355 22.2558 0.404214 -0.406101 23.3988 0.535353 -0.386053 24.5384 0.669356 -0.342166 25.6748 0.803934 -0.278969 26.8082 0.937045 -0.201636 27.9385 1.06686 -0.116082 29.0659 1.19172 -0.0290642 30.1906 1.31017 0.0516848 31.3126 1.42086 0.117305 32.432 1.52257 0.157619 33.5488 1.61423 0.160904 34.6631 1.69483 0.113606 35.775 1.76347 -1.6499e-13 11.0422 0.696421 -0.229107 11.5773 0.841606 -0.179944 12.112 0.965752 -0.137929 12.6462 1.07015 -0.102768 13.1796 1.15589 -0.0744024 13.7123 1.22386 -0.0530027 14.2441 1.27484 -0.0389765 14.775 1.30947 -0.0329715 15.3048 1.32833 -0.0358837 15.8336 1.33189 -0.0488685 16.3612 1.32059 -0.0733548 16.8877 1.29481 -0.111062 17.413 1.25487 -0.164022 17.9371 1.20108 -0.234605 18.4599 1.13371 -0.325549 19.3237 1.19614 -0.414466 20.524 1.40106 -0.456911 21.7174 1.60735 -0.465686 22.9043 1.81272 -0.444408 24.0848 2.01509 -0.397239 25.2593 2.21263 -0.328957 26.428 2.40372 -0.245038 27.591 2.58687 -0.151752 28.7485 2.76078 -0.0562882 29.9007 2.92425 0.0331029 31.0477 3.07622 0.106933 32.1897 3.21572 0.154261 33.3267 3.34189 0.162428 34.4589 3.45395 0.116727 35.5865 3.55117 -1.52386e-13 10.6306 1.11256 -0.231761 11.1522 1.29133 -0.178639 11.6731 1.44974 -0.133908 12.1931 1.58896 -0.0972005 12.712 1.70999 -0.0683893 13.2298 1.81368 -0.0475924 13.7462 1.90074 -0.0351724 14.2613 1.9718 -0.0317416 14.7748 2.02743 -0.0381701 15.2868 2.0681 -0.0555959 15.7971 2.09423 -0.0854397 16.3057 2.10621 -0.129422 16.8126 2.10438 -0.189587 17.3177 2.08905 -0.268326 17.8209 2.0605 -0.368414 18.6933 2.1873 -0.464731 19.9287 2.47723 -0.51032 21.1546 2.76279 -0.520029 22.3712 3.04218 -0.497632 23.579 3.31374 -0.44748 24.7781 3.57603 -0.374578 25.969 3.82775 -0.284669 27.1518 4.06773 -0.184349 28.3267 4.29495 -0.0811927 29.4939 4.50847 0.0160802 30.6537 4.70746 0.0974125 31.8061 4.89116 0.151165 32.9514 5.0589 0.163819 34.0897 5.21009 0.119598 35.221 5.34418 -1.49136e-13 10.2346 1.54418 -0.234194 10.7425 1.75163 -0.177443 11.2493 1.93964 -0.13023 11.7548 2.10925 -0.0921117 12.2589 2.26135 -0.0628987 12.7614 2.39671 -0.0426565 13.262 2.51599 -0.0317044 13.7608 2.61979 -0.0306207 14.2576 2.70861 -0.0402498 14.7523 2.78293 -0.0617127 15.2448 2.84316 -0.0964214 15.7351 2.88965 -0.146097 16.2231 2.92276 -0.212793 16.7088 2.94279 -0.298922 17.192 2.95002 -0.40729 18.0663 3.13787 -0.510302 19.3242 3.50996 -0.558731 20.5702 3.87298 -0.56928 21.8045 4.2255 -0.54587 23.0277 4.56623 -0.493023 24.24 4.89405 -0.415946 25.4418 5.20793 -0.320625 26.6332 5.50698 -0.213944 27.8145 5.79041 -0.103826 28.9861 6.05749 0.000589267 30.148 6.3076 0.0887319 31.3005 6.54017 0.148331 32.4437 6.7547 0.165081 33.5778 6.95075 0.122221 34.703 7.12792 -1.34881e-13 9.84822 1.98546 -0.236406 10.3426 2.21781 -0.176358 10.8354 2.43175 -0.126893 11.3265 2.62819 -0.0874982 11.8156 2.80793 -0.0579251 12.3026 2.97164 -0.0381888 12.7874 3.11993 -0.0285676 13.2697 3.25334 -0.0296071 13.7495 3.37234 -0.0421271 14.2267 3.47736 -0.067232 14.7012 3.56879 -0.106325 15.173 3.64698 -0.161127 15.6419 3.71225 -0.233699 16.1079 3.76491 -0.326472 16.5709 3.80522 -0.442281 17.4415 4.0509 -0.551306 18.711 4.50213 -0.60228 19.9664 4.94043 -0.613581 21.2081 5.3647 -0.589259 22.4366 5.77394 -0.533994 23.6521 6.16728 -0.453172 24.855 6.54397 -0.352996 26.0455 6.90332 -0.240607 27.2239 7.24474 -0.124236 28.3905 7.5677 -0.0133967 29.5455 7.87174 0.0808805 30.689 8.15645 0.145757 31.8214 8.42148 0.166216 32.9427 8.66653 0.124598 34.053 8.89133 -1.20003e-13 9.46721 2.43211 -0.238396 9.94831 2.68636 -0.175381 10.4274 2.9233 -0.123894 10.9041 3.1437 -0.0833564 11.3784 3.34826 -0.0534634 11.85 3.53758 -0.0341837 12.3189 3.7122 -0.0257574 12.7847 3.87258 -0.0286993 13.2475 4.01918 -0.0438058 13.7072 4.15237 -0.0721654 14.1636 4.27252 -0.115173 14.6167 4.37995 -0.174547 15.0664 4.47498 -0.252357 15.5127 4.55786 -0.35105 15.9554 4.62888 -0.473487 16.8175 4.92935 -0.587862 18.0892 5.45656 -0.641095 19.3449 5.9677 -0.653061 20.5851 6.46194 -0.627927 21.8101 6.93853 -0.57051 23.0202 7.39683 -0.48636 24.2158 7.83627 -0.381868 25.3972 8.25637 -0.264402 26.5646 8.6567 -0.142465 27.7184 9.03689 -0.0259032 28.8586 9.39662 0.0738478 29.9856 9.73563 0.143443 31.0995 10.0537 0.167228 32.2006 10.3506 0.12673 33.2889 10.6263 -1.05274e-13 9.08834 2.8809 -0.240166 9.55655 3.15467 -0.174514 10.0221 3.41224 -0.121233 10.4848 3.65426 -0.0796829 10.9444 3.88133 -0.0495089 11.4007 4.09397 -0.0306363 11.8537 4.29265 -0.0232698 12.3032 4.4778 -0.0278958 12.749 4.6498 -0.0452893 13.1912 4.809 -0.0765236 13.6295 4.95573 -0.122985 14.064 5.09029 -0.186392 14.4945 5.21296 -0.268818 14.9211 5.32399 -0.372724 15.3436 5.42364 -0.500995 16.1931 5.776 -0.620077 17.4589 6.37596 -0.675293 18.707 6.95733 -0.68784 19.9378 7.51949 -0.661991 21.1517 8.0619 -0.602682 22.3491 8.58411 -0.515605 23.5302 9.08573 -0.407319 24.6953 9.56641 -0.285389 25.8448 10.0259 -0.158556 26.9789 10.4639 -0.0369541 28.0978 10.8803 0.067624 29.2017 11.2749 0.141388 30.2909 11.6475 0.168119 31.3655 11.9982 0.12862 32.4257 12.3268 -1.01103e-13 8.70918 3.32939 -0.241714 9.16486 3.62078 -0.173756 9.61722 3.89704 -0.118907 10.0661 4.15876 -0.0764749 10.5112 4.40642 -0.0460577 10.9525 4.64048 -0.0275421 11.3897 4.86134 -0.0211011 11.8229 5.06938 -0.0271954 12.2519 5.26492 -0.0465805 12.6766 5.44829 -0.0803161 13.097 5.61977 -0.129781 13.5129 5.77964 -0.19669 13.9244 5.92814 -0.283124 14.3313 6.06551 -0.391555 14.7337 6.19198 -0.524886 15.5669 6.59349 -0.648047 16.8197 7.26295 -0.70498 18.0533 7.91181 -0.718028 19.268 8.53963 -0.691556 20.4642 9.14606 -0.630607 21.6424 9.7308 -0.540995 22.8027 10.2936 -0.429423 23.9456 10.8342 -0.303625 25.0712 11.3525 -0.172547 26.1798 11.8484 -0.0465716 27.2716 12.3218 0.0621999 28.347 12.7725 0.139591 29.406 13.2006 0.168892 30.4489 13.6061 0.13027 31.4759 13.989 -9.16465e-14 8.32786 3.77574 -0.243041 8.77135 4.08318 -0.173106 9.2108 4.37659 -0.116916 9.64603 4.65642 -0.07373 10.0769 4.92309 -0.0431061 10.5032 5.17699 -0.0248973 10.925 5.41845 -0.0192481 11.342 5.6478 -0.0265972 11.7543 5.86533 -0.0476823 12.1617 6.0713 -0.0835512 12.5641 6.26598 -0.135575 12.9616 6.4496 -0.205469 13.3541 6.62238 -0.295314 13.7415 6.78454 -0.407595 14.1239 6.93628 -0.545231 14.9377 7.38436 -0.67186 16.1712 8.12005 -0.730249 17.3842 8.83357 -0.74372 18.5769 9.52466 -0.716718 19.7497 10.1931 -0.654374 20.9031 10.8387 -0.562608 22.0372 11.4613 -0.448243 23.1524 12.0609 -0.319158 24.249 12.6374 -0.184471 25.3272 13.1906 -0.0547758 26.3872 13.7208 0.0575671 27.4293 14.2277 0.138052 28.4536 14.7116 0.169549 29.4605 15.1724 0.13168 30.45 15.6102 -8.24958e-14 7.94298 4.21851 -0.244147 8.37456 4.54077 -0.172565 8.80134 4.85004 -0.115259 9.22318 5.1467 -0.0714458 9.63994 5.43109 -0.0406511 10.0515 5.70351 -0.0226983 10.4579 5.96427 -0.0177082 10.8589 6.21362 -0.0261 11.2545 6.45182 -0.048597 11.6446 6.67909 -0.0862362 12.0293 6.89566 -0.140383 12.4084 7.10172 -0.212749 12.782 7.29748 -0.305422 13.15 7.48312 -0.420891 13.5124 7.65882 -0.56209 14.3042 8.15101 -0.691589 15.5128 8.94965 -0.75118 16.6997 9.72496 -0.765 17.8652 10.4768 -0.737557 19.0096 11.205 -0.67406 20.1333 11.9096 -0.580512 21.2365 12.5906 -0.463837 22.3195 13.2478 -0.332034 23.3826 13.8813 -0.19436 24.4261 14.4912 -0.0615844 25.4501 15.0775 0.0537183 26.455 15.6403 0.136771 27.4408 16.1797 0.170094 28.4079 16.6958 0.132853 29.3565 17.1887 -7.2426e-14 7.55345 4.65664 -0.245031 7.97335 4.99272 -0.172133 8.38764 5.31684 -0.113934 8.79623 5.62928 -0.0696206 9.19903 5.93032 -0.0386902 9.59596 6.22021 -0.0209425 9.98697 6.49919 -0.016479 10.372 6.76747 -0.0257032 10.751 7.02525 -0.0493264 11.124 7.27273 -0.0883769 11.491 7.5101 -0.144215 11.8518 7.73752 -0.218551 12.2066 7.95516 -0.313474 12.5552 8.16319 -0.43148 12.8978 8.36175 -0.575516 13.6648 8.89573 -0.707296 14.8437 9.75404 -0.767843 15.9997 10.5882 -0.781938 17.1333 11.3982 -0.754144 18.2448 12.1839 -0.689729 19.3344 12.9455 -0.594764 20.4026 13.6829 -0.476254 21.4494 14.3962 -0.342288 22.4752 15.0856 -0.20224 23.4803 15.751 -0.0670125 24.4648 16.3926 0.0506472 25.429 17.0106 0.135746 26.3732 17.605 0.170527 27.2975 18.176 0.13379 28.2021 18.7238 -6.26499e-14 7.15848 5.08933 -0.245695 7.56684 5.43846 -0.171808 7.96876 5.77662 -0.11294 8.36419 6.10401 -0.068253 8.75308 6.42086 -0.0372213 9.1354 6.72735 -0.0196276 9.51111 7.02368 -0.0155587 9.88021 7.31 -0.0254062 10.2427 7.58649 -0.0498721 10.5985 7.8533 -0.0899782 10.9477 8.11058 -0.147081 11.2902 8.35847 -0.222889 11.6262 8.5971 -0.319494 11.9555 8.82662 -0.439396 12.2782 9.04715 -0.585549 13.0183 9.62069 -0.719032 14.1628 10.5354 -0.780291 15.2836 11.4254 -0.794592 16.3811 12.2908 -0.766535 17.4557 13.1316 -0.701434 18.5075 13.9479 -0.605412 19.5368 14.7399 -0.485531 20.5439 15.5076 -0.349952 21.5291 16.2513 -0.208131 22.4926 16.9709 -0.0710725 23.4345 17.6667 0.0483485 24.3553 18.3388 0.134978 25.255 18.9875 0.170851 26.1339 19.6128 0.134492 26.9922 20.2149 -5.92074e-14 6.75752 5.51604 -0.246137 7.15438 5.87761 -0.171592 7.54395 6.22918 -0.112279 7.92622 6.57088 -0.0673419 8.30118 6.90287 -0.0362428 8.66884 7.22529 -0.0187519 9.02921 7.53827 -0.0149459 9.38229 7.84195 -0.0252084 9.72812 8.13645 -0.0502352 10.0667 8.42188 -0.0910438 10.3981 8.69836 -0.148987 10.7223 8.96601 -0.225775 11.0393 9.22493 -0.323498 11.3492 9.47522 -0.444659 11.6521 9.717 -0.59222 12.363 10.328 -0.726835 13.4689 11.2957 -0.788567 14.5505 12.2385 -0.803003 15.6082 13.1565 -0.774772 16.6422 14.0498 -0.709215 17.6527 14.9186 -0.61249 18.6399 15.763 -0.491699 19.6043 16.5833 -0.355048 20.5458 17.3794 -0.212049 21.4649 18.1517 -0.0737739 22.3618 18.9004 0.0468182 23.2365 19.6255 0.134466 24.0895 20.3273 0.171065 24.9208 21.006 0.134959 25.7308 21.6618 -6.37413e-14 6.35022 5.93639 -0.246359 6.73553 6.30998 -0.171484 7.11266 6.67449 -0.111948 7.48166 7.03001 -0.0668865 7.84257 7.37664 -0.0357539 8.19544 7.71447 -0.0183144 8.54031 8.04359 -0.0146397 8.87724 8.36409 -0.0251096 9.20627 8.67605 -0.0504166 9.52746 8.97956 -0.0915759 9.84085 9.2747 -0.14994 10.1465 9.56156 -0.227216 10.4445 9.84021 -0.325497 10.7349 10.1107 -0.447287 11.0176 10.3732 -0.59555 11.6973 11.0196 -0.73073 12.7608 12.0369 -0.792698 13.7995 13.0293 -0.807202 14.8139 13.997 -0.778884 15.8039 14.9402 -0.713099 16.77 15.8589 -0.616024 17.7123 16.7535 -0.494778 18.631 17.6241 -0.357592 19.5264 18.4709 -0.214005 20.3986 19.2942 -0.075123 21.248 20.0941 0.0460538 22.0746 20.8708 0.13421 22.8789 21.6245 0.171173 23.6608 22.3555 0.135193 24.4207 23.064 -5.14568e-14 5.93639 6.35022 -0.246359 6.30998 6.73553 -0.171484 6.67449 7.11266 -0.111948 7.03001 7.48166 -0.0668865 7.37664 7.84257 -0.0357539 7.71447 8.19544 -0.0183144 8.04359 8.54031 -0.0146397 8.36409 8.87724 -0.0251096 8.67605 9.20627 -0.0504166 8.97956 9.52746 -0.0915759 9.2747 9.84085 -0.14994 9.56156 10.1465 -0.227216 9.84021 10.4445 -0.325497 10.1107 10.7349 -0.447287 10.3732 11.0176 -0.59555 11.0196 11.6973 -0.73073 12.0369 12.7608 -0.792698 13.0293 13.7995 -0.807202 13.997 14.8139 -0.778884 14.9402 15.8039 -0.713099 15.8589 16.77 -0.616024 16.7535 17.7123 -0.494778 17.6241 18.631 -0.357592 18.4709 19.5264 -0.214005 19.2942 20.3986 -0.075123 20.0941 21.248 0.0460538 20.8708 22.0746 0.13421 21.6245 22.8789 0.171173 22.3555 23.6608 0.135193 23.064 24.4207 -5.72226e-14 5.51604 6.75752 -0.246137 5.87761 7.15438 -0.171592 6.22918 7.54395 -0.112279 6.57088 7.92622 -0.0673419 6.90287 8.30118 -0.0362428 7.22529 8.66884 -0.0187519 7.53827 9.02921 -0.0149459 7.84195 9.38229 -0.0252084 8.13645 9.72812 -0.0502352 8.42188 10.0667 -0.0910438 8.69836 10.3981 -0.148987 8.96601 10.7223 -0.225775 9.22493 11.0393 -0.323498 9.47522 11.3492 -0.444659 9.717 11.6521 -0.59222 10.328 12.363 -0.726835 11.2957 13.4689 -0.788567 12.2385 14.5505 -0.803003 13.1565 15.6082 -0.774772 14.0498 16.6422 -0.709215 14.9186 17.6527 -0.61249 15.763 18.6399 -0.491699 16.5833 19.6043 -0.355048 17.3794 20.5458 -0.212049 18.1517 21.4649 -0.0737739 18.9004 22.3618 0.0468182 19.6255 23.2365 0.134466 20.3273 24.0895 0.171065 21.006 24.9208 0.134959 21.6618 25.7308 -5.78874e-14 5.08933 7.15848 -0.245695 5.43846 7.56684 -0.171808 5.77662 7.96876 -0.11294 6.10401 8.36419 -0.068253 6.42086 8.75308 -0.0372213 6.72735 9.1354 -0.0196276 7.02368 9.51111 -0.0155587 7.31 9.88021 -0.0254062 7.58649 10.2427 -0.0498721 7.8533 10.5985 -0.0899782 8.11058 10.9477 -0.147081 8.35847 11.2902 -0.222889 8.5971 11.6262 -0.319494 8.82662 11.9555 -0.439396 9.04715 12.2782 -0.585549 9.62069 13.0183 -0.719032 10.5354 14.1628 -0.780291 11.4254 15.2836 -0.794592 12.2908 16.3811 -0.766535 13.1316 17.4557 -0.701434 13.9479 18.5075 -0.605412 14.7399 19.5368 -0.485531 15.5076 20.5439 -0.349952 16.2513 21.5291 -0.208131 16.9709 22.4926 -0.0710725 17.6667 23.4345 0.0483485 18.3388 24.3553 0.134978 18.9875 25.255 0.170851 19.6128 26.1339 0.134492 20.2149 26.9922 -5.75943e-14 4.65664 7.55345 -0.245031 4.99272 7.97335 -0.172133 5.31684 8.38764 -0.113934 5.62928 8.79623 -0.0696206 5.93032 9.19903 -0.0386902 6.22021 9.59596 -0.0209425 6.49919 9.98697 -0.016479 6.76747 10.372 -0.0257032 7.02525 10.751 -0.0493264 7.27273 11.124 -0.0883769 7.5101 11.491 -0.144215 7.73752 11.8518 -0.218551 7.95516 12.2066 -0.313474 8.16319 12.5552 -0.43148 8.36175 12.8978 -0.575516 8.89573 13.6648 -0.707296 9.75404 14.8437 -0.767843 10.5882 15.9997 -0.781938 11.3982 17.1333 -0.754144 12.1839 18.2448 -0.689729 12.9455 19.3344 -0.594764 13.6829 20.4026 -0.476254 14.3962 21.4494 -0.342288 15.0856 22.4752 -0.20224 15.751 23.4803 -0.0670125 16.3926 24.4648 0.0506472 17.0106 25.429 0.135746 17.605 26.3732 0.170527 18.176 27.2975 0.13379 18.7238 28.2021 -6.56236e-14 4.21851 7.94298 -0.244147 4.54077 8.37456 -0.172565 4.85004 8.80134 -0.115259 5.1467 9.22318 -0.0714458 5.43109 9.63994 -0.0406511 5.70351 10.0515 -0.0226983 5.96427 10.4579 -0.0177082 6.21362 10.8589 -0.0261 6.45182 11.2545 -0.048597 6.67909 11.6446 -0.0862362 6.89566 12.0293 -0.140383 7.10172 12.4084 -0.212749 7.29748 12.782 -0.305422 7.48312 13.15 -0.420891 7.65882 13.5124 -0.56209 8.15101 14.3042 -0.691589 8.94965 15.5128 -0.75118 9.72496 16.6997 -0.765 10.4768 17.8652 -0.737557 11.205 19.0096 -0.67406 11.9096 20.1333 -0.580512 12.5906 21.2365 -0.463837 13.2478 22.3195 -0.332034 13.8813 23.3826 -0.19436 14.4912 24.4261 -0.0615844 15.0775 25.4501 0.0537183 15.6403 26.455 0.136771 16.1797 27.4408 0.170094 16.6958 28.4079 0.132853 17.1887 29.3565 -6.64374e-14 3.77574 8.32786 -0.243041 4.08318 8.77135 -0.173106 4.37659 9.2108 -0.116916 4.65642 9.64603 -0.07373 4.92309 10.0769 -0.0431061 5.17699 10.5032 -0.0248973 5.41845 10.925 -0.0192481 5.6478 11.342 -0.0265972 5.86533 11.7543 -0.0476823 6.0713 12.1617 -0.0835512 6.26598 12.5641 -0.135575 6.4496 12.9616 -0.205469 6.62238 13.3541 -0.295314 6.78454 13.7415 -0.407595 6.93628 14.1239 -0.545231 7.38436 14.9377 -0.67186 8.12005 16.1712 -0.730249 8.83357 17.3842 -0.74372 9.52466 18.5769 -0.716718 10.1931 19.7497 -0.654374 10.8387 20.9031 -0.562608 11.4613 22.0372 -0.448243 12.0609 23.1524 -0.319158 12.6374 24.249 -0.184471 13.1906 25.3272 -0.0547758 13.7208 26.3872 0.0575671 14.2277 27.4293 0.138052 14.7116 28.4536 0.169549 15.1724 29.4605 0.13168 15.6102 30.45 -7.77292e-14 3.32939 8.70918 -0.241714 3.62078 9.16486 -0.173756 3.89704 9.61722 -0.118907 4.15876 10.0661 -0.0764749 4.40642 10.5112 -0.0460577 4.64048 10.9525 -0.0275421 4.86134 11.3897 -0.0211011 5.06938 11.8229 -0.0271954 5.26492 12.2519 -0.0465805 5.44829 12.6766 -0.0803161 5.61977 13.097 -0.129781 5.77964 13.5129 -0.19669 5.92814 13.9244 -0.283124 6.06551 14.3313 -0.391555 6.19198 14.7337 -0.524886 6.59349 15.5669 -0.648047 7.26295 16.8197 -0.70498 7.91181 18.0533 -0.718028 8.53963 19.268 -0.691556 9.14606 20.4642 -0.630607 9.7308 21.6424 -0.540995 10.2936 22.8027 -0.429423 10.8342 23.9456 -0.303625 11.3525 25.0712 -0.172547 11.8484 26.1798 -0.0465716 12.3218 27.2716 0.0621999 12.7725 28.347 0.139591 13.2006 29.406 0.168892 13.6061 30.4489 0.13027 13.989 31.4759 -9.16465e-14 2.8809 9.08834 -0.240166 3.15467 9.55655 -0.174514 3.41224 10.0221 -0.121233 3.65426 10.4848 -0.0796829 3.88133 10.9444 -0.0495089 4.09397 11.4007 -0.0306363 4.29265 11.8537 -0.0232698 4.4778 12.3032 -0.0278958 4.6498 12.749 -0.0452893 4.809 13.1912 -0.0765236 4.95573 13.6295 -0.122985 5.09029 14.064 -0.186392 5.21296 14.4945 -0.268818 5.32399 14.9211 -0.372724 5.42364 15.3436 -0.500995 5.776 16.1931 -0.620077 6.37596 17.4589 -0.675293 6.95733 18.707 -0.68784 7.51949 19.9378 -0.661991 8.0619 21.1517 -0.602682 8.58411 22.3491 -0.515605 9.08573 23.5302 -0.407319 9.56641 24.6953 -0.285389 10.0259 25.8448 -0.158556 10.4639 26.9789 -0.0369541 10.8803 28.0978 0.067624 11.2749 29.2017 0.141388 11.6475 30.2909 0.168119 11.9982 31.3655 0.12862 12.3268 32.4257 -1.0063e-13 2.43211 9.46721 -0.238396 2.68636 9.94831 -0.175381 2.9233 10.4274 -0.123894 3.1437 10.9041 -0.0833564 3.34826 11.3784 -0.0534634 3.53758 11.85 -0.0341837 3.7122 12.3189 -0.0257574 3.87258 12.7847 -0.0286993 4.01918 13.2475 -0.0438058 4.15237 13.7072 -0.0721654 4.27252 14.1636 -0.115173 4.37995 14.6167 -0.174547 4.47498 15.0664 -0.252357 4.55786 15.5127 -0.35105 4.62888 15.9554 -0.473487 4.92935 16.8175 -0.587862 5.45656 18.0892 -0.641095 5.9677 19.3449 -0.653061 6.46194 20.5851 -0.627927 6.93853 21.8101 -0.57051 7.39683 23.0202 -0.48636 7.83627 24.2158 -0.381868 8.25637 25.3972 -0.264402 8.6567 26.5646 -0.142465 9.03689 27.7184 -0.0259032 9.39662 28.8586 0.0738478 9.73563 29.9856 0.143443 10.0537 31.0995 0.167228 10.3506 32.2006 0.12673 10.6263 33.2889 -1.05274e-13 1.98546 9.84822 -0.236406 2.21781 10.3426 -0.176358 2.43175 10.8354 -0.126893 2.62819 11.3265 -0.0874982 2.80793 11.8156 -0.0579251 2.97164 12.3026 -0.0381888 3.11993 12.7874 -0.0285676 3.25334 13.2697 -0.0296071 3.37234 13.7495 -0.0421271 3.47736 14.2267 -0.067232 3.56879 14.7012 -0.106325 3.64698 15.173 -0.161127 3.71225 15.6419 -0.233699 3.76491 16.1079 -0.326472 3.80522 16.5709 -0.442281 4.0509 17.4415 -0.551306 4.50213 18.711 -0.60228 4.94043 19.9664 -0.613581 5.3647 21.2081 -0.589259 5.77394 22.4366 -0.533994 6.16728 23.6521 -0.453172 6.54397 24.855 -0.352996 6.90332 26.0455 -0.240607 7.24474 27.2239 -0.124236 7.5677 28.3905 -0.0133967 7.87174 29.5455 0.0808805 8.15645 30.689 0.145757 8.42148 31.8214 0.166216 8.66653 32.9427 0.124598 8.89133 34.053 -1.25422e-13 1.54418 10.2346 -0.234194 1.75163 10.7425 -0.177443 1.93964 11.2493 -0.13023 2.10925 11.7548 -0.0921117 2.26135 12.2589 -0.0628987 2.39671 12.7614 -0.0426565 2.51599 13.262 -0.0317044 2.61979 13.7608 -0.0306207 2.70861 14.2576 -0.0402498 2.78293 14.7523 -0.0617127 2.84316 15.2448 -0.0964214 2.88965 15.7351 -0.146097 2.92276 16.2231 -0.212793 2.94279 16.7088 -0.298922 2.95002 17.192 -0.40729 3.13787 18.0663 -0.510302 3.50996 19.3242 -0.558731 3.87298 20.5702 -0.56928 4.2255 21.8045 -0.54587 4.56623 23.0277 -0.493023 4.89405 24.24 -0.415946 5.20793 25.4418 -0.320625 5.50698 26.6332 -0.213944 5.79041 27.8145 -0.103826 6.05749 28.9861 0.000589267 6.3076 30.148 0.0887319 6.54017 31.3005 0.148331 6.7547 32.4437 0.165081 6.95075 33.5778 0.122221 7.12792 34.703 -1.24142e-13 1.11256 10.6306 -0.231761 1.29133 11.1522 -0.178639 1.44974 11.6731 -0.133908 1.58896 12.1931 -0.0972005 1.70999 12.712 -0.0683893 1.81368 13.2298 -0.0475924 1.90074 13.7462 -0.0351724 1.9718 14.2613 -0.0317416 2.02743 14.7748 -0.0381701 2.0681 15.2868 -0.0555959 2.09423 15.7971 -0.0854397 2.10621 16.3057 -0.129422 2.10438 16.8126 -0.189587 2.08905 17.3177 -0.268326 2.0605 17.8209 -0.368414 2.1873 18.6933 -0.464731 2.47723 19.9287 -0.51032 2.76279 21.1546 -0.520029 3.04218 22.3712 -0.497632 3.31374 23.579 -0.44748 3.57603 24.7781 -0.374578 3.82775 25.969 -0.284669 4.06773 27.1518 -0.184349 4.29495 28.3267 -0.0811927 4.50847 29.4939 0.0160802 4.70746 30.6537 0.0974125 4.89116 31.8061 0.151165 5.0589 32.9514 0.163819 5.21009 34.0897 0.119598 5.34418 35.221 -1.4933e-13 0.696421 11.0422 -0.229107 0.841606 11.5773 -0.179944 0.965752 12.112 -0.137929 1.07015 12.6462 -0.102768 1.15589 13.1796 -0.0744024 1.22386 13.7123 -0.0530027 1.27484 14.2441 -0.0389765 1.30947 14.775 -0.0329715 1.32833 15.3048 -0.0358837 1.33189 15.8336 -0.0488685 1.32059 16.3612 -0.0733548 1.29481 16.8877 -0.111062 1.25487 17.413 -0.164022 1.20108 17.9371 -0.234605 1.13371 18.4599 -0.325549 1.19614 19.3237 -0.414466 1.40106 20.524 -0.456911 1.60735 21.7174 -0.465686 1.81272 22.9043 -0.444408 2.01509 24.0848 -0.397239 2.21263 25.2593 -0.328957 2.40372 26.428 -0.245038 2.58687 27.591 -0.151752 2.76078 28.7485 -0.0562882 2.92425 29.9007 0.0331029 3.07622 31.0477 0.106933 3.21572 32.1897 0.154261 3.34189 33.3267 0.162428 3.45395 34.4589 0.116727 3.55117 35.5865 -1.57512e-13 0.303831 11.4772 -0.226231 0.408939 12.0253 -0.18136 0.492781 12.5732 -0.142294 0.556724 13.1207 -0.10882 0.601884 13.6679 -0.0809441 0.629182 14.2147 -0.058894 0.639386 14.7611 -0.0431222 0.633142 15.3069 -0.0343121 0.610997 15.8523 -0.0333862 0.573421 16.397 -0.0415168 0.520816 16.9412 -0.0601401 0.453534 17.4848 -0.0909734 0.371879 18.0278 -0.136035 0.276121 18.5701 -0.19767 0.166498 19.1118 -0.278579 0.161121 19.959 -0.359369 0.278506 21.1092 -0.398355 0.404214 22.2558 -0.406101 0.535353 23.3988 -0.386053 0.669356 24.5384 -0.342166 0.803934 25.6748 -0.278969 0.937045 26.8082 -0.201636 1.06686 27.9385 -0.116082 1.19172 29.0659 -0.0290642 1.31017 30.1906 0.0516848 1.42086 31.3126 0.117305 1.52257 32.432 0.157619 1.61423 33.5488 0.160904 1.69483 34.6631 0.113606 1.76347 35.775 -1.70001e-13 -0.0537748 11.9473 -0.223135 0.00240562 12.5067 -0.182886 0.0379137 13.0662 -0.147006 0.0540716 13.6256 -0.11536 0.0519349 14.1851 -0.088021 0.0323569 14.7445 -0.0652734 -0.00396508 15.304 -0.0476153 -0.056456 15.8634 -0.0357655 -0.124637 16.4229 -0.0306727 -0.208106 16.9823 -0.0335256 -0.306524 17.5418 -0.0457669 -0.419602 18.1012 -0.06911 -0.547093 18.6607 -0.105558 -0.688782 19.2201 -0.15743 -0.844485 19.7796 -0.227384 -0.921186 20.6007 -0.299295 -0.893422 21.6834 -0.334495 -0.848934 22.7661 -0.341115 -0.791322 23.8488 -0.322414 -0.723776 24.9315 -0.282121 -0.649126 26.0143 -0.224489 -0.569899 27.097 -0.154364 -0.488353 28.1797 -0.0772638 -0.406513 29.2624 0.00052924 -0.326203 30.3451 0.0718545 -0.249065 31.4278 0.12854 -0.176588 32.5106 0.16124 -0.11012 33.5933 0.159244 -0.0508849 34.676 0.110233 -2.50645e-14 35.7587 -1.81146e-13 10.2927 -0.256233 -13.9825 10.871 -0.132669 -14.1767 11.4445 -0.0360296 -14.3685 12.0119 0.0348462 -14.5582 12.5719 0.0807876 -14.7459 13.1232 0.102399 -14.9317 13.6644 0.100132 -15.1157 14.1943 0.0743439 -15.2976 14.7115 0.0253308 -15.4774 15.2147 -0.0466397 -15.6548 15.7027 -0.141308 -15.8296 16.1742 -0.258405 -16.0011 16.628 -0.39764 -16.1691 17.0631 -0.558691 -16.3329 17.4781 -0.741195 -16.4917 18.1114 -0.846468 -16.744 18.9489 -0.838625 -17.1398 19.7441 -0.808995 -17.5969 20.4933 -0.762746 -18.1156 21.1928 -0.704275 -18.6961 21.8389 -0.63729 -19.3388 22.4283 -0.56489 -20.0442 22.9573 -0.489618 -20.8129 23.4225 -0.413517 -21.6456 23.8207 -0.338169 -22.5434 24.1486 -0.264733 -23.5074 24.4028 -0.193974 -24.5393 24.5802 -0.126288 -25.641 24.6776 -0.0617247 -26.8148 24.6916 5.08543e-14 -28.0638 9.92625 0.10482 -13.8508 10.4921 0.26129 -14.0531 11.0529 0.391918 -14.2502 11.6074 0.497622 -14.4423 12.1542 0.57906 -14.6296 12.692 0.636715 -14.8122 13.2195 0.670954 -14.9902 13.7353 0.682066 -15.1634 14.2382 0.670299 -15.3318 14.7269 0.635885 -15.4952 15.2001 0.579051 -15.6533 15.6566 0.500045 -15.8058 16.0953 0.399136 -15.9522 16.5151 0.27663 -16.092 16.9149 0.132877 -16.2247 17.5843 0.0946862 -16.4669 18.5049 0.188322 -16.8715 19.3769 0.291746 -17.3388 20.1965 0.400446 -17.8693 20.9601 0.510582 -18.4635 21.6639 0.618921 -19.122 22.3043 0.722778 -19.8455 22.8778 0.819969 -20.635 23.3807 0.908769 -21.4915 23.8098 0.987878 -22.4164 24.1615 1.05639 -23.4113 24.4325 1.11377 -24.4782 24.6194 1.15983 -25.6196 24.7188 1.19472 -26.8385 24.7272 1.21889 -28.1384 9.57277 0.478858 -13.7286 10.1261 0.664476 -13.9396 10.6742 0.825442 -14.1427 11.2156 0.962438 -14.3383 11.749 1.07595 -14.5265 12.2731 1.16633 -14.7074 12.7865 1.23385 -14.8811 13.288 1.27872 -15.0476 13.7763 1.30112 -15.2068 14.2501 1.30123 -15.3585 14.7082 1.27924 -15.5025 15.1495 1.23536 -15.6386 15.5728 1.16983 -15.7663 15.9771 1.08292 -15.8853 16.3613 0.974958 -15.9949 17.0581 1.00091 -16.2269 18.0451 1.17855 -16.6359 18.9782 1.35533 -17.1084 19.8538 1.52722 -17.6451 20.6679 1.69082 -18.2466 21.4169 1.84326 -18.9138 22.097 1.98215 -19.6478 22.7047 2.10558 -20.4498 23.2361 2.21205 -21.3211 23.6879 2.30046 -22.2635 24.0565 2.37006 -23.2791 24.3383 2.42049 -24.3704 24.5299 2.45168 -25.5402 24.6277 2.46388 -26.7923 24.6282 2.45765 -28.1309 9.2278 0.861397 -13.6157 9.76887 1.07324 -13.8356 10.3043 1.26163 -14.0454 10.8326 1.42703 -14.2452 11.3526 1.56977 -14.4352 11.8629 1.69008 -14.6157 12.3622 1.78811 -14.7866 12.8492 1.86401 -14.948 13.3227 1.91788 -15.0998 13.7814 1.94985 -15.2419 14.2243 1.96005 -15.3741 14.6501 1.94865 -15.4961 15.0579 1.91584 -15.6078 15.4465 1.86187 -15.7085 15.815 1.78702 -15.798 16.5314 1.87419 -16.0198 17.5701 2.13365 -16.4301 18.5507 2.38276 -16.9041 19.4693 2.6179 -17.4426 20.3222 2.83596 -18.0467 21.1054 3.03432 -18.7174 21.8153 3.21083 -19.4559 22.448 3.36375 -20.2639 22.9999 3.49172 -21.1431 23.4673 3.59377 -22.0955 23.8467 3.66926 -23.1237 24.1344 3.71788 -24.2307 24.3268 3.73964 -25.42 24.4203 3.73482 -26.6957 24.4113 3.70398 -28.0628 8.88806 1.24917 -13.5123 9.41713 1.48488 -13.7412 9.94005 1.6983 -13.9577 10.4555 1.88971 -14.1622 10.962 2.05927 -14.3549 11.4585 2.2071 -14.5358 11.9436 2.33327 -14.7051 12.4161 2.43781 -14.8627 12.8747 2.52079 -15.0086 13.3184 2.58225 -15.1428 13.7459 2.62227 -15.2651 14.1562 2.64098 -15.3753 14.5483 2.63852 -15.4731 14.9212 2.61508 -15.5582 15.274 2.57093 -15.6301 16.0031 2.71642 -15.842 17.0805 3.0552 -16.2513 18.0964 3.3752 -16.7241 19.0469 3.67304 -17.2615 19.928 3.94587 -17.8645 20.7358 4.19123 -18.5347 21.4665 4.40712 -19.2734 22.1164 4.59188 -20.0825 22.6816 4.74426 -20.9642 23.1586 4.86333 -21.921 23.5436 4.94847 -22.9556 23.8329 4.9994 -24.0716 24.023 5.01611 -25.273 24.1102 4.99885 -26.5647 24.0905 4.94814 -27.9523 8.55111 1.63974 -13.4183 9.06846 1.89738 -13.6559 9.57909 2.13383 -13.8793 10.0817 2.3492 -14.0888 10.575 2.54353 -14.2845 11.0577 2.71682 -14.4665 11.5287 2.86903 -14.635 11.9866 3.00015 -14.79 12.4304 3.11013 -14.9314 12.8589 3.19899 -15.0592 13.271 3.26673 -15.1733 13.6658 3.31343 -15.2734 14.0422 3.33917 -15.3594 14.3993 3.34413 -15.4309 14.7363 3.3285 -15.4876 15.4722 3.52946 -15.6903 16.577 3.94481 -16.097 17.6174 4.33385 -16.5668 18.5896 4.69341 -17.1008 19.4895 5.02076 -17.7004 20.3133 5.31357 -18.3672 21.0572 5.5699 -19.1029 21.7172 5.78814 -19.9097 22.2896 5.96704 -20.7901 22.7707 6.10568 -21.7468 23.1569 6.20343 -22.7831 23.4445 6.25993 -23.9031 23.6297 6.27511 -25.1111 23.7089 6.24914 -26.4127 23.6782 6.18243 -27.8142 8.21512 2.03126 -13.3336 8.72097 2.3092 -13.5796 9.21951 2.56698 -13.8098 9.70945 2.80456 -14.0242 10.1896 3.02188 -14.2233 10.6586 3.21882 -14.4069 11.1154 3.39526 -14.5753 11.5589 3.55111 -14.7285 11.9878 3.68627 -14.8664 12.4012 3.80066 -14.9891 12.7979 3.89425 -15.0963 13.1771 3.96704 -15.188 13.5378 4.0191 -15.264 13.8791 4.05051 -15.3239 14.2003 4.06145 -15.3675 14.9377 4.3151 -15.5617 16.0596 4.80405 -15.9649 17.115 5.25999 -16.4305 18.1 5.67988 -16.9598 19.0106 6.06106 -17.5543 19.8427 6.40125 -18.2159 20.5927 6.6985 -18.9465 21.2567 6.95123 -19.7486 21.8309 7.15815 -20.6248 22.3116 7.31825 -21.5785 22.6952 7.43085 -22.6131 22.9781 7.4955 -23.7332 23.1564 7.512 -24.9437 23.2266 7.48036 -26.2507 23.1847 7.40083 -27.6611 7.87867 2.42232 -13.2584 8.37321 2.71916 -13.5122 8.85979 2.9968 -13.7487 9.33718 3.25508 -13.9681 9.80418 3.49383 -14.1705 10.2596 3.71285 -14.356 10.7024 3.91194 -14.5248 11.1313 4.09091 -14.6768 11.5454 4.2496 -14.8122 11.9437 4.38788 -14.9307 12.3251 4.50566 -15.0324 12.6887 4.60288 -15.1171 13.0336 4.67954 -15.1847 13.3592 4.7357 -15.2348 13.6645 4.77147 -15.2672 14.3987 5.07506 -15.4536 15.5286 5.63449 -15.8529 16.5905 6.15495 -16.3136 17.5803 6.63345 -16.8375 18.494 7.06737 -17.426 19.3279 7.45442 -18.0813 20.0779 7.79263 -18.8055 20.7404 8.08035 -19.6014 21.3117 8.31621 -20.4718 21.788 8.49913 -21.4204 22.1658 8.62829 -22.4511 22.4415 8.70309 -23.5687 22.6114 8.72317 -24.7787 22.6718 8.68838 -26.0877 22.6189 8.59872 -27.5031 7.54068 2.81185 -13.1926 8.02402 3.12635 -13.4535 8.49873 3.42258 -13.6959 8.96363 3.70024 -13.9199 9.41756 3.95908 -14.1256 9.85943 4.1988 -14.3131 10.2881 4.41912 -14.4825 10.7026 4.61979 -14.634 11.1019 4.80059 -14.7674 11.485 4.961