<?xml version="1.0"?> 
<VTKFile type="StructuredGrid" version="0.1"> 
<StructuredGrid WholeExtent="0 29 0 29 0 29"> 
<Piece Extent="0 29 0 29 0 29"> 
<PointData>
<DataArray type="Float32" Name="efield" format="ascii" NumberOfComponents="3"> 
0.092046 5.50922 16.3087 0.0167523 5.76884 16.1645 -0.0404474 6.02846 16.0294 -0.0839376 6.28808 15.9031 -0.117099 6.54771 15.7852 -0.142582 6.80733 15.6756 -0.162491 7.06695 15.5745 -0.178519 7.32657 15.4818 -0.192046 7.58619 15.3981 -0.204205 7.84581 15.3238 -0.215935 8.10543 15.2596 -0.228023 8.36505 15.2064 -0.241133 8.62467 15.1652 -0.255826 8.88429 15.1375 -0.272584 9.14391 15.1247 -0.308526 9.34482 15.1169 -0.349521 9.48702 15.0236 -0.37571 9.62922 14.8225 -0.388815 9.77141 14.5078 -0.390349 9.91361 14.0727 -0.381642 10.0558 13.5088 -0.36387 10.198 12.8059 -0.338078 10.3402 11.9521 -0.305195 10.4824 10.9325 -0.266051 10.6246 9.72944 -0.22139 10.7668 8.3212 -0.17188 10.909 6.68122 -0.118124 11.0512 4.7767 -0.0606663 11.1934 2.56678 4.27834e-15 11.3356 -6.11752e-14 0.198546 5.24212 16.4092 0.173043 5.51414 16.2561 0.159352 5.78472 16.1142 0.15441 6.05403 15.983 0.15581 6.32222 15.8622 0.161642 6.58941 15.7517 0.170365 6.85568 15.6515 0.180727 7.12112 15.5618 0.191698 7.38578 15.4829 0.202425 7.64973 15.4154 0.212195 7.91299 15.36 0.220409 8.17561 15.3178 0.226558 8.43762 15.2899 0.23021 8.69904 15.2778 0.230995 8.95991 15.2833 0.214277 9.17489 15.2951 0.192127 9.34346 15.2185 0.181573 9.51086 15.0307 0.181162 9.67717 14.7261 0.189615 9.84247 14.2977 0.205801 10.0068 13.7371 0.228716 10.1703 13.0339 0.257469 10.333 12.1757 0.29126 10.4949 11.1472 0.329378 10.656 9.93005 0.371181 10.8164 8.50154 0.416091 10.9762 6.83373 0.463589 11.1354 4.89189 0.513203 11.2939 2.63242 0.564505 11.4519 -5.67697e-14 0.328288 4.99827 16.5025 0.344202 5.27834 16.341 0.367394 5.55604 16.1926 0.395682 5.83162 16.0569 0.427331 6.1053 15.9333 0.460945 6.37724 15.8217 0.495386 6.64758 15.7222 0.529723 6.91643 15.6349 0.563184 7.18389 15.5602 0.595127 7.45003 15.4987 0.625012 7.71493 15.4513 0.652383 7.97864 15.4189 0.676855 8.2412 15.4029 0.698097 8.50267 15.4049 0.715828 8.76307 15.427 0.718116 8.9886 15.4567 0.715218 9.17831 15.395 0.72114 9.36589 15.2193 0.734661 9.55147 14.9239 0.754704 9.73518 14.5016 0.780313 9.91715 13.9441 0.810637 10.0975 13.2407 0.844918 10.2762 12.3787 0.88248 10.4535 11.3424 0.922713 10.6294 10.1128 0.965071 10.804 8.66627 1.00906 10.9773 6.97346 1.05424 11.1493 4.99781 1.1002 11.3202 2.69305 1.14659 11.49 -4.92089e-14 0.475061 4.77144 16.5886 0.525991 5.05643 16.4193 0.580869 5.33842 16.2649 0.638119 5.61769 16.1247 0.696473 5.89446 15.9984 0.754905 6.16894 15.8857 0.81257 6.44127 15.7867 0.868774 6.71158 15.7014 0.922937 6.97999 15.6304 0.974577 7.24658 15.5743 1.02329 7.51143 15.5338 1.06872 7.77462 15.5102 1.1106 8.03619 15.5049 1.14866 8.2962 15.5197 1.1827 8.55469 15.5565 1.20363 8.7877 15.6023 1.22009 8.99399 15.5542 1.24297 9.19733 15.3893 1.27126 9.39791 15.1021 1.30404 9.59589 14.6854 1.34052 9.79141 14.1307 1.37998 9.98462 13.4273 1.42179 10.1756 12.5621 1.46537 10.3645 11.5191 1.51021 10.5514 10.2785 1.55584 10.7364 8.8159 1.60186 10.9196 7.10076 1.6479 11.101 5.09466 1.6936 11.2807 2.74873 1.73867 11.4588 -3.65297e-14 0.634368 4.55715 16.6676 0.715299 4.84472 16.491 0.797698 5.12883 16.3309 0.880417 5.40977 16.1866 0.962524 5.68776 16.0577 1.04326 5.963 15.9439 1.12199 6.23564 15.8451 1.19821 6.50582 15.7616 1.27147 6.77365 15.6938 1.34143 7.03922 15.6423 1.40776 7.30262 15.6081 1.47023 7.56393 15.5923 1.52862 7.8232 15.5965 1.58274 8.08048 15.6226 1.63244 8.33583 15.6727 1.67151 8.57364 15.7329 1.70721 8.79249 15.6968 1.74725 9.00772 15.5416 1.7908 9.21953 15.2617 1.83711 9.42812 14.8501 1.8855 9.63364 14.298 1.93538 9.83625 13.5946 1.98622 10.0361 12.7267 2.03755 10.2333 11.6778 2.08893 10.4279 10.4277 2.13999 10.6201 8.95095 2.19038 10.8099 7.21598 2.23979 10.9975 5.18262 2.28794 11.1829 2.79951 2.33458 11.3661 -2.70457e-14 0.802886 4.35207 16.7394 0.909802 4.64042 16.5561 1.01633 4.92497 16.3907 1.12161 5.20598 16.2427 1.22498 5.48367 16.1113 1.32585 5.75822 15.9963 1.42378 6.02978 15.8977 1.51836 6.2985 15.8157 1.60929 6.56447 15.7506 1.6963 6.8278 15.7032 1.77916 7.08856 15.6744 1.85769 7.34683 15.6655 1.93173 7.60267 15.6782 2.00116 7.85614 15.7143 2.06586 8.10729 15.7762 2.12252 8.3476 15.8491 2.17713 8.57548 15.8237 2.23431 8.79918 15.6771 2.29336 9.01892 15.4038 2.35366 9.23488 14.9966 2.41466 9.44726 14.4469 2.47587 9.65621 13.7437 2.53686 9.86187 12.8734 2.59723 10.0644 11.8195 2.65665 10.2639 10.561 2.71478 10.4604 9.07193 2.77136 10.6541 7.31947 2.82613 10.8451 5.26189 2.87886 11.0334 2.84546 2.92936 11.2192 -2.16799e-14 0.978113 4.1537 16.804 1.10774 4.44141 16.6146 1.23558 4.72503 16.4445 1.36099 5.00481 16.2929 1.48348 5.28094 16.1593 1.60263 5.5536 16.0432 1.71809 5.82293 15.9447 1.82959 6.08906 15.8638 1.9369 6.3521 15.8011 2.03981 6.61213 15.7572 2.13817 6.86924 15.7332 2.23185 7.12349 15.7303 2.32074 7.37496 15.7503 2.40475 7.62369 15.7952 2.48381 7.86973 15.8675 2.55742 8.11049 15.9517 2.63049 8.34431 15.9357 2.70458 8.57347 15.7966 2.77914 8.79821 15.529 2.85366 9.01872 15.1259 2.92769 9.23519 14.5782 3.00084 9.44777 13.8752 3.07276 9.65663 13.0031 3.14312 9.86188 11.9448 3.21166 10.0637 10.6791 3.27812 10.2621 9.17929 3.34228 10.4573 7.41155 3.40393 10.6492 5.33264 3.4629 10.8382 2.88662 3.51903 11.0241 -1.15639e-14 1.15815 3.96013 16.8614 1.30778 4.24604 16.6666 1.45456 4.52761 16.4922 1.59802 4.80506 16.3375 1.73779 5.07858 16.2017 1.87358 5.34833 16.0846 2.00514 5.61444 15.986 2.13225 5.87703 15.9061 2.25476 6.1362 15.8454 2.37253 6.39204 15.8046 2.48545 6.64462 15.7846 2.59343 6.89401 15.787 2.6964 7.14027 15.8134 2.7943 7.38346 15.8659 2.88711 7.62363 15.9473 2.977 7.86306 16.0412 3.06794 8.10006 16.0334 3.15858 8.33204 15.901 3.24848 8.5592 15.6384 3.33724 8.78176 15.2386 3.42449 8.99989 14.6929 3.50994 9.21374 13.9901 3.59328 9.42348 13.1163 3.67429 9.62923 12.0544 3.75274 9.83112 10.7825 3.82843 10.0293 9.2735 3.9012 10.2238 7.49253 3.97088 10.4147 5.39504 4.03735 10.6022 2.92306 4.10047 10.7863 -5.62373e-15 1.34152 3.76991 16.9117 1.50889 4.05301 16.712 1.67259 4.33156 16.5339 1.83231 4.60575 16.3763 1.98778 4.87576 16.2387 2.13878 5.14171 16.1206 2.28513 5.40375 16.0219 2.42669 5.66196 15.9428 2.56335 5.91646 15.8838 2.69502 6.16731 15.8455 2.82163 6.4146 15.829 2.94312 6.65839 15.8359 3.05945 6.89874 15.8677 3.1706 7.1357 15.9269 3.27654 7.36932 16.016 3.38204 7.60584 16.1183 3.49017 7.8436 16.1175 3.59687 8.07604 15.9907 3.7018 8.30336 15.7324 3.80465 8.52576 15.3356 3.90513 8.74341 14.7915 4.003 8.95646 14.0889 4.09806 9.16506 13.2139 4.19011 9.36935 12.1489 4.27899 9.56943 10.8718 4.36455 9.76543 9.35496 4.44665 9.95745 7.5627 4.5252 10.1456 5.44926 4.60009 10.3299 2.95481 4.67124 10.5105 2.53256e-15 1.52712 3.58191 16.9548 1.71028 3.86133 16.7509 1.88919 4.13601 16.5695 2.06361 4.40611 16.4095 2.23336 4.67178 16.2703 2.3983 4.93316 16.1513 2.55829 5.19035 16.0525 2.71326 5.44345 15.974 2.86312 5.69256 15.9164 3.00782 5.93774 15.8802 3.14731 6.17906 15.8667 3.28158 6.4166 15.8772 3.41061 6.6504 15.9137 3.53438 6.88052 15.9784 3.6529 7.107 16.074 3.77328 7.33921 16.1834 3.89784 7.57558 16.1886 4.02003 7.80639 16.0665 4.13956 8.03186 15.8118 4.2562 8.25216 15.4176 4.36975 8.46745 14.8748 4.48003 8.67788 14.1725 4.58689 8.88359 13.2963 4.69018 9.0847 12.2288 4.78979 9.28133 10.9474 4.8856 9.47359 9.42404 4.97755 9.66157 7.62232 5.06553 9.84537 5.49543 5.14951 10.0251 2.98194 5.2294 10.2008 9.88838e-15 1.71406 3.39525 16.9907 1.91135 3.67019 16.7833 2.10397 3.94021 16.5992 2.29173 4.20546 16.4371 2.47454 4.46607 16.2965 2.65228 4.72215 16.1768 2.82489 4.97381 16.0778 2.99231 5.22113 15.9999 3.15449 5.46419 15.9433 3.31142 5.70306 15.9089 3.46308 5.93782 15.8977 3.60945 6.16851 15.9113 3.75054 6.3952 15.9516 3.88636 6.61793 16.0208 4.01692 6.83676 16.1218 4.15146 7.06343 16.2371 4.29164 7.29645 16.2471 4.42862 7.52379 16.1289 4.56222 7.74562 15.8772 4.69225 7.9621 15.485 4.81859 8.17338 14.9434 4.94111 8.37959 14.2412 5.05969 8.58087 13.3642 5.17424 8.77733 12.2946 5.2847 8.96908 11.0098 5.39098 9.15622 9.48108 5.49305 9.33885 7.67164 5.59084 9.51704 5.5337 5.68433 9.6909 3.00448 5.77348 9.86048 1.29833e-14 1.90168 3.20928 17.0194 2.11167 3.47898 16.8093 2.31667 3.74361 16.6229 2.51659 4.00329 16.4592 2.71134 4.25813 16.3174 2.90088 4.50825 16.1971 3.08517 4.75372 16.098 3.26418 4.99463 16.0204 3.4379 5.23104 15.9647 3.60633 5.46303 15.9316 3.76946 5.69066 15.9224 3.92731 5.91397 15.9384 4.07988 6.13304 15.9816 4.22721 6.34789 16.0544 4.36931 6.55859 16.1597 4.51728 6.77858 16.2795 4.67219 7.00653 16.2934 4.82323 7.22873 16.1783 4.97026 7.44533 15.9289 5.11318 7.65646 15.5383 5.2519 7.86228 14.9976 5.38634 8.06288 14.2956 5.51644 8.2584 13.418 5.64215 8.44893 12.3468 5.76342 8.63458 11.0592 5.88021 8.81543 9.52636 5.99251 8.99157 7.71084 6.10029 9.1631 5.56417 6.20355 9.33007 3.02246 6.30227 9.49258 1.91138e-14 2.0895 3.0235 17.0409 2.31092 3.28721 16.8287 2.52715 3.54572 16.6407 2.73814 3.79913 16.4757 2.94385 4.04755 16.3331 3.14428 4.29105 16.2123 3.3394 4.52972 16.1131 3.52923 4.76361 16.0358 3.71375 4.99281 15.9807 3.893 5.21736 15.9486 4.06698 5.43733 15.9407 4.23571 5.65276 15.9585 4.39923 5.86372 16.0039 4.55755 6.07024 16.0794 4.71072 6.27237 16.1878 4.87137 6.48465 16.3111 5.04008 6.70597 16.3278 5.20435 6.92153 16.215 5.36412 7.13147 15.9673 5.51932 7.33592 15.578 5.66992 7.53497 15.038 5.81588 7.72875 14.336 5.95717 7.91734 13.458 6.09378 8.10083 12.3856 6.22569 8.27933 11.0961 6.3529 8.4529 9.56012 6.4754 8.62162 7.74009 6.59321 8.78558 5.58694 6.70632 8.94484 3.03592 6.81475 9.09947 2.09868e-14 2.27717 2.83756 17.0553 2.50889 3.09452 16.8417 2.73531 3.34619 16.6525 2.95641 3.59264 16.4867 3.1722 3.83395 16.3435 3.38268 4.0702 16.2224 3.58786 4.30145 16.1231 3.78777 4.52775 16.046 3.98244 4.74916 15.9913 4.17187 4.96575 15.9599 4.35611 5.17755 15.9529 4.53518 5.38462 15.9719 4.70913 5.587 16.0188 4.87797 5.78474 16.096 5.04176 5.97789 16.2065 5.21435 6.18153 16.332 5.39585 6.39477 16.3506 5.57247 6.60235 16.2393 5.74418 6.80436 15.9928 5.91098 7.0009 15.6042 6.07286 7.19206 15.0647 6.22982 7.37793 14.3629 6.38187 7.55858 13.4845 6.52902 7.7341 12.4113 6.67129 7.90454 11.1205 6.80868 8.06999 9.58252 6.94123 8.23052 7.75952 7.06895 8.38618 5.60208 7.19187 8.53704 3.04488 7.31003 8.68316 2.5024e-14 2.46445 2.65125 17.0625 2.70548 2.90067 16.8481 2.94115 3.14473 16.6584 3.17149 3.3835 16.4922 3.39653 3.61704 16.3487 3.61629 3.84538 16.2274 3.83083 4.06859 16.1282 4.04016 4.28671 16.0511 4.24432 4.49978 15.9966 4.44336 4.70786 15.9655 4.63731 4.91099 15.959 4.8262 5.10921 15.9785 5.01009 5.30258 16.0262 5.189 5.49112 16.1042 5.36298 5.67489 16.2158 5.54673 5.869 16.3425 5.73998 6.07285 16.362 5.92798 6.2712 16.2514 6.11078 6.46413 16.0055 6.28839 6.65169 15.6173 6.46086 6.83395 15.078 6.6282 7.01097 14.3762 6.79047 7.18281 13.4977 6.94769 7.34952 12.4242 7.0999 7.51117 11.1327 7.24715 7.6678 9.5937 7.38946 7.81947 7.76921 7.52687 7.96624 5.60964 7.65944 8.10816 3.04936 7.7872 8.24529 2.52669e-14 2.65125 2.46445 17.0625 2.90067 2.70548 16.8481 3.14473 2.94115 16.6584 3.3835 3.17149 16.4922 3.61704 3.39653 16.3487 3.84538 3.61629 16.2274 4.06859 3.83083 16.1282 4.28671 4.04016 16.0511 4.49978 4.24432 15.9966 4.70786 4.44336 15.9655 4.91099 4.63731 15.959 5.10921 4.8262 15.9785 5.30258 5.01009 16.0262 5.49112 5.189 16.1042 5.67489 5.36298 16.2158 5.869 5.54673 16.3425 6.07285 5.73998 16.362 6.2712 5.92798 16.2514 6.46413 6.11078 16.0055 6.65169 6.28839 15.6173 6.83395 6.46086 15.078 7.01097 6.6282 14.3762 7.18281 6.79047 13.4977 7.34952 6.94769 12.4242 7.51117 7.0999 11.1327 7.6678 7.24715 9.5937 7.81947 7.38946 7.76921 7.96624 7.52687 5.60964 8.10816 7.65944 3.04936 8.24529 7.7872 2.93768e-14 2.83756 2.27717 17.0553 3.09452 2.50889 16.8417 3.34619 2.73531 16.6525 3.59264 2.95641 16.4867 3.83395 3.1722 16.3435 4.0702 3.38268 16.2224 4.30145 3.58786 16.1231 4.52775 3.78777 16.046 4.74916 3.98244 15.9913 4.96575 4.17187 15.9599 5.17755 4.35611 15.9529 5.38462 4.53518 15.9719 5.587 4.70913 16.0188 5.78474 4.87797 16.096 5.97789 5.04176 16.2065 6.18153 5.21435 16.332 6.39477 5.39585 16.3506 6.60235 5.57247 16.2393 6.80436 5.74418 15.9928 7.0009 5.91098 15.6042 7.19206 6.07286 15.0647 7.37793 6.22982 14.3629 7.55858 6.38187 13.4845 7.7341 6.52902 12.4113 7.90454 6.67129 11.1205 8.06999 6.80868 9.58252 8.23052 6.94123 7.75952 8.38618 7.06895 5.60208 8.53704 7.19187 3.04488 8.68316 7.31003 2.31165e-14 3.0235 2.0895 17.0409 3.28721 2.31092 16.8287 3.54572 2.52715 16.6407 3.79913 2.73814 16.4757 4.04755 2.94385 16.3331 4.29105 3.14428 16.2123 4.52972 3.3394 16.1131 4.76361 3.52923 16.0358 4.99281 3.71375 15.9807 5.21736 3.893 15.9486 5.43733 4.06698 15.9407 5.65276 4.23571 15.9585 5.86372 4.39923 16.0039 6.07024 4.55755 16.0794 6.27237 4.71072 16.1878 6.48465 4.87137 16.3111 6.70597 5.04008 16.3278 6.92153 5.20435 16.215 7.13147 5.36412 15.9673 7.33592 5.51932 15.578 7.53497 5.66992 15.038 7.72875 5.81588 14.336 7.91734 5.95717 13.458 8.10083 6.09378 12.3856 8.27933 6.22569 11.0961 8.4529 6.3529 9.56012 8.62162 6.4754 7.74009 8.78558 6.59321 5.58694 8.94484 6.70632 3.03592 9.09947 6.81475 2.30611e-14 3.20928 1.90168 17.0194 3.47898 2.11167 16.8093 3.74361 2.31667 16.6229 4.00329 2.51659 16.4592 4.25813 2.71134 16.3174 4.50825 2.90088 16.1971 4.75372 3.08517 16.098 4.99463 3.26418 16.0204 5.23104 3.4379 15.9647 5.46303 3.60633 15.9316 5.69066 3.76946 15.9224 5.91397 3.92731 15.9384 6.13304 4.07988 15.9816 6.34789 4.22721 16.0544 6.55859 4.36931 16.1597 6.77858 4.51728 16.2795 7.00653 4.67219 16.2934 7.22873 4.82323 16.1783 7.44533 4.97026 15.9289 7.65646 5.11318 15.5383 7.86228 5.2519 14.9976 8.06288 5.38634 14.2956 8.2584 5.51644 13.418 8.44893 5.64215 12.3468 8.63458 5.76342 11.0592 8.81543 5.88021 9.52636 8.99157 5.99251 7.71084 9.1631 6.10029 5.56417 9.33007 6.20355 3.02246 9.49258 6.30227 2.03944e-14 3.39525 1.71406 16.9907 3.67019 1.91135 16.7833 3.94021 2.10397 16.5992 4.20546 2.29173 16.4371 4.46607 2.47454 16.2965 4.72215 2.65228 16.1768 4.97381 2.82489 16.0778 5.22113 2.99231 15.9999 5.46419 3.15449 15.9433 5.70306 3.31142 15.9089 5.93782 3.46308 15.8977 6.16851 3.60945 15.9113 6.3952 3.75054 15.9516 6.61793 3.88636 16.0208 6.83676 4.01692 16.1218 7.06343 4.15146 16.2371 7.29645 4.29164 16.2471 7.52379 4.42862 16.1289 7.74562 4.56222 15.8772 7.9621 4.69225 15.485 8.17338 4.81859 14.9434 8.37959 4.94111 14.2412 8.58087 5.05969 13.3642 8.77733 5.17424 12.2946 8.96908 5.2847 11.0098 9.15622 5.39098 9.48108 9.33885 5.49305 7.67164 9.51704 5.59084 5.5337 9.6909 5.68433 3.00448 9.86048 5.77348 1.55409e-14 3.58191 1.52712 16.9548 3.86133 1.71028 16.7509 4.13601 1.88919 16.5695 4.40611 2.06361 16.4095 4.67178 2.23336 16.2703 4.93316 2.3983 16.1513 5.19035 2.55829 16.0525 5.44345 2.71326 15.974 5.69256 2.86312 15.9164 5.93774 3.00782 15.8802 6.17906 3.14731 15.8667 6.4166 3.28158 15.8772 6.6504 3.41061 15.9137 6.88052 3.53438 15.9784 7.107 3.6529 16.074 7.33921 3.77328 16.1834 7.57558 3.89784 16.1886 7.80639 4.02003 16.0665 8.03186 4.13956 15.8118 8.25216 4.2562 15.4176 8.46745 4.36975 14.8748 8.67788 4.48003 14.1725 8.88359 4.58689 13.2963 9.0847 4.69018 12.2288 9.28133 4.78979 10.9474 9.47359 4.8856 9.42404 9.66157 4.97755 7.62232 9.84537 5.06553 5.49543 10.0251 5.14951 2.98194 10.2008 5.2294 1.04088e-14 3.76991 1.34152 16.9117 4.05301 1.50889 16.712 4.33156 1.67259 16.5339 4.60575 1.83231 16.3763 4.87576 1.98778 16.2387 5.14171 2.13878 16.1206 5.40375 2.28513 16.0219 5.66196 2.42669 15.9428 5.91646 2.56335 15.8838 6.16731 2.69502 15.8455 6.4146 2.82163 15.829 6.65839 2.94312 15.8359 6.89874 3.05945 15.8677 7.1357 3.1706 15.9269 7.36932 3.27654 16.016 7.60584 3.38204 16.1183 7.8436 3.49017 16.1175 8.07604 3.59687 15.9907 8.30336 3.7018 15.7324 8.52576 3.80465 15.3356 8.74341 3.90513 14.7915 8.95646 4.003 14.0889 9.16506 4.09806 13.2139 9.36935 4.19011 12.1489 9.56943 4.27899 10.8718 9.76543 4.36455 9.35496 9.95745 4.44665 7.5627 10.1456 4.5252 5.44926 10.3299 4.60009 2.95481 10.5105 4.67124 5.0653e-15 3.96013 1.15815 16.8614 4.24604 1.30778 16.6666 4.52761 1.45456 16.4922 4.80506 1.59802 16.3375 5.07858 1.73779 16.2017 5.34833 1.87358 16.0846 5.61444 2.00514 15.986 5.87703 2.13225 15.9061 6.1362 2.25476 15.8454 6.39204 2.37253 15.8046 6.64462 2.48545 15.7846 6.89401 2.59343 15.787 7.14027 2.6964 15.8134 7.38346 2.7943 15.8659 7.62363 2.88711 15.9473 7.86306 2.977 16.0412 8.10006 3.06794 16.0334 8.33204 3.15858 15.901 8.5592 3.24848 15.6384 8.78176 3.33724 15.2386 8.99989 3.42449 14.6929 9.21374 3.50994 13.9901 9.42348 3.59328 13.1163 9.62923 3.67429 12.0544 9.83112 3.75274 10.7825 10.0293 3.82843 9.2735 10.2238 3.9012 7.49253 10.4147 3.97088 5.39504 10.6022 4.03735 2.92306 10.7863 4.10047 -5.62373e-15 4.1537 0.978113 16.804 4.44141 1.10774 16.6146 4.72503 1.23558 16.4445 5.00481 1.36099 16.2929 5.28094 1.48348 16.1593 5.5536 1.60263 16.0432 5.82293 1.71809 15.9447 6.08906 1.82959 15.8638 6.3521 1.9369 15.8011 6.61213 2.03981 15.7572 6.86924 2.13817 15.7332 7.12349 2.23185 15.7303 7.37496 2.32074 15.7503 7.62369 2.40475 15.7952 7.86973 2.48381 15.8675 8.11049 2.55742 15.9517 8.34431 2.63049 15.9357 8.57347 2.70458 15.7966 8.79821 2.77914 15.529 9.01872 2.85366 15.1259 9.23519 2.92769 14.5782 9.44777 3.00084 13.8752 9.65663 3.07276 13.0031 9.86188 3.14312 11.9448 10.0637 3.21166 10.6791 10.2621 3.27812 9.17929 10.4573 3.34228 7.41155 10.6492 3.40393 5.33264 10.8382 3.4629 2.88662 11.0241 3.51903 -1.40261e-14 4.35207 0.802886 16.7394 4.64042 0.909802 16.5561 4.92497 1.01633 16.3907 5.20598 1.12161 16.2427 5.48367 1.22498 16.1113 5.75822 1.32585 15.9963 6.02978 1.42378 15.8977 6.2985 1.51836 15.8157 6.56447 1.60929 15.7506 6.8278 1.6963 15.7032 7.08856 1.77916 15.6744 7.34683 1.85769 15.6655 7.60267 1.93173 15.6782 7.85614 2.00116 15.7143 8.10729 2.06586 15.7762 8.3476 2.12252 15.8491 8.57548 2.17713 15.8237 8.79918 2.23431 15.6771 9.01892 2.29336 15.4038 9.23488 2.35366 14.9966 9.44726 2.41466 14.4469 9.65621 2.47587 13.7437 9.86187 2.53686 12.8734 10.0644 2.59723 11.8195 10.2639 2.65665 10.561 10.4604 2.71478 9.07193 10.6541 2.77136 7.31947 10.8451 2.82613 5.26189 11.0334 2.87886 2.84546 11.2192 2.92936 -2.1819e-14 4.55715 0.634368 16.6676 4.84472 0.715299 16.491 5.12883 0.797698 16.3309 5.40977 0.880417 16.1866 5.68776 0.962524 16.0577 5.963 1.04326 15.9439 6.23564 1.12199 15.8451 6.50582 1.19821 15.7616 6.77365 1.27147 15.6938 7.03922 1.34143 15.6423 7.30262 1.40776 15.6081 7.56393 1.47023 15.5923 7.8232 1.52862 15.5965 8.08048 1.58274 15.6226 8.33583 1.63244 15.6727 8.57364 1.67151 15.7329 8.79249 1.70721 15.6968 9.00772 1.74725 15.5416 9.21953 1.7908 15.2617 9.42812 1.83711 14.8501 9.63364 1.8855 14.298 9.83625 1.93538 13.5946 10.0361 1.98622 12.7267 10.2333 2.03755 11.6778 10.4279 2.08893 10.4277 10.6201 2.13999 8.95095 10.8099 2.19038 7.21598 10.9975 2.23979 5.18262 11.1829 2.28794 2.79951 11.3661 2.33458 -3.15178e-14 4.77144 0.475061 16.5886 5.05643 0.525991 16.4193 5.33842 0.580869 16.2649 5.61769 0.638119 16.1247 5.89446 0.696473 15.9984 6.16894 0.754905 15.8857 6.44127 0.81257 15.7867 6.71158 0.868774 15.7014 6.97999 0.922937 15.6304 7.24658 0.974577 15.5743 7.51143 1.02329 15.5338 7.77462 1.06872 15.5102 8.03619 1.1106 15.5049 8.2962 1.14866 15.5197 8.55469 1.1827 15.5565 8.7877 1.20363 15.6023 8.99399 1.22009 15.5542 9.19733 1.24297 15.3893 9.39791 1.27126 15.1021 9.59589 1.30404 14.6854 9.79141 1.34052 14.1307 9.98462 1.37998 13.4273 10.1756 1.42179 12.5621 10.3645 1.46537 11.5191 10.5514 1.51021 10.2785 10.7364 1.55584 8.8159 10.9196 1.60186 7.10076 11.101 1.6479 5.09466 11.2807 1.6936 2.74873 11.4588 1.73867 -3.64897e-14 4.99827 0.328288 16.5025 5.27834 0.344202 16.341 5.55604 0.367394 16.1926 5.83162 0.395682 16.0569 6.1053 0.427331 15.9333 6.37724 0.460945 15.8217 6.64758 0.495386 15.7222 6.91643 0.529723 15.6349 7.18389 0.563184 15.5602 7.45003 0.595127 15.4987 7.71493 0.625012 15.4513 7.97864 0.652383 15.4189 8.2412 0.676855 15.4029 8.50267 0.698097 15.4049 8.76307 0.715828 15.427 8.9886 0.718116 15.4567 9.17831 0.715218 15.395 9.36589 0.72114 15.2193 9.55147 0.734661 14.9239 9.73518 0.754704 14.5016 9.91715 0.780313 13.9441 10.0975 0.810637 13.2407 10.2762 0.844918 12.3787 10.4535 0.88248 11.3424 10.6294 0.922713 10.1128 10.804 0.965071 8.66627 10.9773 1.00906 6.97346 11.1493 1.05424 4.99781 11.3202 1.1002 2.69305 11.49 1.14659 -4.92348e-14 5.24212 0.198546 16.4092 5.51414 0.173043 16.2561 5.78472 0.159352 16.1142 6.05403 0.15441 15.983 6.32222 0.15581 15.8622 6.58941 0.161642 15.7517 6.85568 0.170365 15.6515 7.12112 0.180727 15.5618 7.38578 0.191698 15.4829 7.64973 0.202425 15.4154 7.91299 0.212195 15.36 8.17561 0.220409 15.3178 8.43762 0.226558 15.2899 8.69904 0.23021 15.2778 8.95991 0.230995 15.2833 9.17489 0.214277 15.2951 9.34346 0.192127 15.2185 9.51086 0.181573 15.0307 9.67717 0.181162 14.7261 9.84247 0.189615 14.2977 10.0068 0.205801 13.7371 10.1703 0.228716 13.0339 10.333 0.257469 12.1757 10.4949 0.29126 11.1472 10.656 0.329378 9.93005 10.8164 0.371181 8.50154 10.9762 0.416091 6.83373 11.1354 0.463589 4.89189 11.2939 0.513203 2.63242 11.4519 0.564505 -5.67697e-14 5.50922 0.092046 16.3087 5.76884 0.0167523 16.1645 6.02846 -0.0404474 16.0294 6.28808 -0.0839376 15.9031 6.54771 -0.117099 15.7852 6.80733 -0.142582 15.6756 7.06695 -0.162491 15.5745 7.32657 -0.178519 15.4818 7.58619 -0.192046 15.3981 7.84581 -0.204205 15.3238 8.10543 -0.215935 15.2596 8.36505 -0.228023 15.2064 8.62467 -0.241133 15.1652 8.88429 -0.255826 15.1375 9.14391 -0.272584 15.1247 9.34482 -0.308526 15.1169 9.48702 -0.349521 15.0236 9.62922 -0.37571 14.8225 9.77141 -0.388815 14.5078 9.91361 -0.390349 14.0727 10.0558 -0.381642 13.5088 10.198 -0.36387 12.8059 10.3402 -0.338078 11.9521 10.4824 -0.305195 10.9325 10.6246 -0.266051 9.72944 10.7668 -0.22139 8.3212 10.909 -0.17188 6.68122 11.0512 -0.118124 4.7767 11.1934 -0.0606663 2.56678 11.3356 4.27834e-15 -6.11752e-14 0.0307742 5.52573 22.6154 0.0909841 5.7483 22.5528 0.126965 5.97076 22.4819 0.141573 6.19272 22.4027 0.136915 6.41379 22.3148 0.114569 6.63359 22.2181 0.0757431 6.85176 22.1123 0.021377 7.06795 21.9969 -0.0477848 7.28182 21.8716 -0.131141 7.49308 21.7358 -0.228193 7.70146 21.5892 -0.338523 7.90672 21.4311 -0.461766 8.10867 21.2607 -0.597598 8.30719 21.0774 -0.745726 8.50221 20.8803 -0.774942 9.04031 20.7543 -0.671311 9.91421 20.6984 -0.564608 10.7738 20.6257 -0.458479 11.6181 20.5349 -0.356089 12.4461 20.4244 -0.260188 13.257 20.2922 -0.173165 14.0502 20.1364 -0.0971004 14.8255 19.9543 -0.0338058 15.5828 19.743 0.0151325 16.3224 19.4991 0.0483178 17.0449 19.2182 0.0645039 17.7515 18.8957 0.0625557 18.444 18.5255 0.0414051 19.1248 18.1008 -1.17175e-14 19.7971 17.6129 0.294454 5.41045 22.6727 0.35421 5.61783 22.6114 0.393225 5.82529 22.542 0.413624 6.03228 22.4641 0.416996 6.2383 22.3776 0.404553 6.44287 22.2823 0.377237 6.64554 22.178 0.335791 6.8459 22.0643 0.280814 7.04355 21.9409 0.212803 7.23814 21.8075 0.132176 7.42934 21.6636 0.0392982 7.61687 21.5086 -0.0655042 7.80047 21.3421 -0.181931 7.97997 21.1635 -0.309697 8.15521 20.9719 -0.294214 8.70349 20.8566 -0.127171 9.615 20.8126 0.0368943 10.5083 20.7474 0.194858 11.3824 20.6598 0.344019 12.2364 20.5483 0.482039 13.0699 20.4111 0.606907 13.8822 20.2464 0.716893 14.6732 20.0515 0.810517 15.4429 19.8236 0.886518 16.1916 19.5594 0.943821 16.9202 19.2548 0.981513 17.6299 18.9049 0.998805 18.3225 18.5039 0.995005 19.0005 18.0447 0.969473 19.6674 17.5187 0.552775 5.28981 22.7258 0.613237 5.48399 22.6663 0.655754 5.67818 22.5985 0.681908 5.87176 22.5224 0.692901 6.06416 22.4377 0.689657 6.25483 22.3443 0.672905 6.44328 22.242 0.643227 6.62905 22.1305 0.601101 6.81169 22.0096 0.54693 6.9908 21.879 0.481062 7.16603 21.7383 0.403808 7.33705 21.5872 0.315456 7.50355 21.4251 0.216277 7.66531 21.2515 0.106539 7.82214 21.066 0.164347 8.37641 20.9605 0.393134 9.31624 20.926 0.613635 10.2344 20.866 0.823176 11.1301 20.7794 1.01945 12.0026 20.6648 1.20049 12.8513 20.5205 1.3646 13.6759 20.3448 1.51037 14.4762 20.1351 1.63662 15.2524 19.8889 1.74237 16.0048 19.6026 1.82685 16.7344 19.2725 1.88945 17.4425 18.8935 1.92971 18.131 18.4601 1.94729 18.8024 17.9649 1.94195 19.4604 17.3993 0.805758 5.16383 22.7749 0.86779 5.3464 22.7173 0.914146 5.52877 22.6514 0.946 5.71027 22.5773 0.964251 5.89029 22.4947 0.969598 6.06824 22.4035 0.962595 6.24361 22.3035 0.943692 6.4159 22.1947 0.913261 6.58464 22.0766 0.871623 6.74941 21.9492 0.819061 6.9098 21.8121 0.755833 7.06545 21.6651 0.682186 7.21606 21.5077 0.598362 7.36132 21.3396 0.504602 7.50102 21.1603 0.602451 8.05767 21.0637 0.891129 9.01762 21.0369 1.16687 9.95295 20.9803 1.42737 10.8629 20.8931 1.67069 11.747 20.7738 1.89516 12.6045 20.6211 2.09938 13.4353 20.4331 2.2822 14.2393 20.2075 2.44273 15.0167 19.9418 2.58024 15.7681 19.6326 2.69424 16.4942 19.276 2.78439 17.1966 18.8674 2.85053 17.8772 18.4008 2.89268 18.5387 17.8691 2.91096 19.1848 17.2635 1.05342 5.03253 22.8199 1.11767 5.2048 22.7643 1.16811 5.37655 22.7005 1.20559 5.54709 22.6285 1.23078 5.7158 22.5481 1.24419 5.88209 22.4594 1.24623 6.0454 22.362 1.23725 6.20523 22.2559 1.21752 6.36109 22.141 1.18728 6.51253 22.0169 1.14676 6.65914 21.8836 1.09617 6.80054 21.7409 1.03571 6.93637 21.5883 0.965583 7.06632 21.4257 0.88601 7.19013 21.2527 1.02172 7.74601 21.1643 1.3683 8.71882 21.1436 1.69786 9.66447 21.0892 2.00844 10.5823 21.0001 2.29839 11.4718 20.8753 2.5663 12.3325 20.7133 2.81105 13.1642 20.5124 3.03172 13.9669 20.2704 3.22765 14.7409 19.9849 3.39836 15.4867 19.6525 3.54359 16.2054 19.2695 3.66328 16.8984 18.8312 3.75756 17.5679 18.3317 3.82674 18.2165 17.7638 3.87134 18.848 17.1186 1.29576 4.89591 22.8608 1.36273 5.05895 22.8072 1.41742 5.22109 22.7456 1.46045 5.38165 22.6758 1.49229 5.53999 22.5978 1.51331 5.69553 22.5115 1.52381 5.8477 22.4168 1.524 5.99598 22.3136 1.51411 6.1399 22.2018 1.4943 6.27897 22.0812 1.46474 6.41279 21.9518 1.42558 6.54094 21.8133 1.37699 6.66305 21.6656 1.31914 6.77881 21.5085 1.2522 6.8879 21.3417 1.4237 7.44027 21.2605 1.82608 8.4195 21.2448 2.20789 9.36939 21.1915 2.56744 10.2893 21.0999 2.90332 11.1789 20.9689 3.21439 12.0376 20.7973 3.49972 12.8654 20.5834 3.75862 13.6624 20.3251 3.99064 14.4288 20.02 4.19551 15.1654 19.6649 4.3732 15.8731 19.2561 4.52389 16.5536 18.7889 4.64797 17.2089 18.2574 4.74608 17.842 17.6544 4.81907 18.4566 16.9708 1.53281 4.75399 22.8977 1.60286 4.90868 22.8461 1.66192 5.06206 22.7865 1.71043 5.21347 22.719 1.74868 5.36226 22.6433 1.77692 5.50785 22.5595 1.79535 5.6497 22.4675 1.8041 5.78727 22.3672 1.80331 5.92008 22.2584 1.7931 6.04766 22.1413 1.77356 6.16958 22.0156 1.74482 6.28543 21.8813 1.70698 6.39483 21.7383 1.66018 6.49744 21.5864 1.60455 6.59293 21.4255 1.80985 7.13937 21.351 2.26588 8.11927 21.3391 2.69823 9.06797 21.2863 3.10545 9.98493 21.1917 3.48637 10.8697 21.0545 3.84002 11.722 20.8733 4.16569 12.5417 20.6467 4.46288 13.329 20.3727 4.73131 14.0842 20.0487 4.97092 14.8081 19.6719 5.18187 15.5018 19.2385 5.36457 16.1668 18.7437 5.51967 16.8055 18.1818 5.64808 17.4207 17.5455 5.75101 18.0162 16.8253 1.76455 4.60678 22.9304 1.83798 4.75385 22.8807 1.90151 4.8992 22.8232 1.95541 5.04216 22.7578 1.99986 5.18211 22.6844 2.035 5.31848 22.603 2.06093 5.45072 22.5136 2.07771 5.57832 22.416 2.08541 5.70079 22.3103 2.08409 5.81767 22.1964 2.0738 5.92853 22.0743 2.05461 6.03295 21.9439 2.02657 6.13055 21.8053 1.98978 6.22098 21.6584 1.94435 6.30391 21.5031 2.1816 6.84228 21.4343 2.68906 7.81771 21.4256 3.17014 8.76038 21.3727 3.62361 9.66978 21.275 4.04847 10.5455 21.1316 4.44394 11.3873 20.9413 4.80948 12.1952 20.7026 5.14473 12.9693 20.4137 5.4496 13.7101 20.0722 5.72419 14.4183 19.6751 5.96885 15.0952 19.2187 6.18421 15.7423 18.6983 6.37113 16.362 18.1081 6.53082 16.9572 17.4407 6.66482 17.5318 16.6866 1.99101 4.45427 22.959 2.06804 4.59436 22.9112 2.13611 4.73228 22.8556 2.19534 4.8674 22.7922 2.24582 4.99912 22.7209 2.28758 5.12688 22.6417 2.32065 5.25016 22.5547 2.34503 5.36845 22.4597 2.36072 5.48127 22.3567 2.36771 5.58816 22.2459 2.36602 5.68871 22.1271 2.35565 5.78249 22.0004 2.33664 5.86914 21.8658 2.30902 5.9483 21.7234 2.27286 6.01963 21.5731 2.54029 6.54803 21.5094 3.09693 7.51436 21.5032 3.62487 8.44664 21.45 4.12304 9.34439 21.3492 4.59061 10.2073 21.1999 5.02696 11.035 21.0011 5.43167 11.8277 20.7514 5.80456 12.5856 20.4489 6.14564 13.309 20.0913 6.4552 13.999 19.6757 6.73375 14.6566 19.1984 6.98209 15.2835 18.6548 7.20133 15.8822 18.0389 7.39292 16.4555 17.3432 7.55874 17.0075 16.5582 2.21218 4.29647 22.9836 2.29299 4.43009 22.9373 2.36565 4.5611 22.8835 2.43018 4.68891 22.8219 2.48654 4.81293 22.7525 2.53472 4.93263 22.6754 2.57464 5.04751 22.5905 2.60627 5.15706 22.4978 2.62953 5.26083 22.3974 2.64438 5.35838 22.2892 2.65076 5.44929 22.1734 2.64866 5.53316 22.05 2.63804 5.60963 21.919 2.6189 5.67833 21.7806 2.59127 5.73895 21.6348 2.88722 6.25564 21.5755 3.49076 7.20869 21.5713 4.06361 8.12666 21.5175 4.60485 9.00907 21.4138 5.11379 9.85563 21.2592 5.58993 10.6662 21.0528 6.03298 11.4407 20.7932 6.44286 12.1795 20.4786 6.81975 12.8831 20.1067 7.16404 13.5524 19.6748 7.4764 14.1886 19.179 7.75781 14.7934 18.6148 8.00958 15.3692 17.9761 8.23342 15.9191 17.2555 8.43151 16.447 16.4431 2.42806 4.13339 23.004 2.51282 4.26098 22.9592 2.59013 4.38552 22.9068 2.65992 4.50645 22.8468 2.72207 4.62323 22.7791 2.77649 4.73534 22.7038 2.82306 4.84229 22.6207 2.86166 4.94362 22.5301 2.89218 5.03888 22.4318 2.91452 5.12764 22.326 2.92859 5.20952 22.2128 2.9343 5.28412 22.0922 2.93159 5.35108 21.9643 2.92042 5.41007 21.8293 2.90075 5.46077 21.6873 3.22364 5.96419 21.6317 3.87177 6.90014 21.6289 4.48753 7.80022 21.5746 5.07013 8.66397 21.4682 5.61899 9.49112 21.309 6.13372 10.2815 21.0961 6.61412 11.0352 20.8279 7.06024 11.7525 20.503 7.47233 12.434 20.119 7.85093 13.0806 19.673 8.19685 13.6934 19.1615 8.5112 14.2744 18.5796 8.7955 14.8258 17.9215 9.05167 15.3507 17.1795 9.28221 15.853 16.3437 2.63866 3.96503 23.0204 2.72751 4.08695 22.9767 2.80953 4.2054 22.9256 