<?xml version="1.0"?> 
<VTKFile type="StructuredGrid" version="0.1"> 
<StructuredGrid WholeExtent="0 29 0 29 0 29"> 
<Piece Extent="0 29 0 29 0 29"> 
<PointData>
<DataArray type="Float32" Name="efield" format="ascii" NumberOfComponents="3"> 
0.0569753 -12.0914 -0.125154 -0.000418001 -12.6581 -0.085336 -0.0367862 -13.2248 -0.0499578 -0.053482 -13.7914 -0.0188839 -0.0515855 -14.3581 0.0078104 -0.0319699 -14.9248 0.0298365 0.00465154 -15.4915 0.0466886 0.0576902 -16.0582 0.0576369 0.126656 -16.6249 0.0617195 0.211139 -17.1916 0.0577307 0.31079 -17.7583 0.0442074 0.425315 -18.325 0.0194125 0.55446 -18.8917 -0.0186857 0.698006 -19.4584 -0.0724368 0.855765 -20.0251 -0.144537 0.933548 -20.8567 -0.218716 0.90553 -21.9532 -0.25616 0.860544 -23.0497 -0.265173 0.80224 -24.1463 -0.249079 0.73385 -25.2428 -0.211678 0.658243 -26.3393 -0.157308 0.577978 -27.4358 -0.090911 0.495346 -28.5323 -0.0181118 0.412398 -29.6288 0.0546826 0.330982 -30.7253 0.12017 0.252764 -31.8218 0.170018 0.179251 -32.9183 0.194697 0.11181 -34.0148 0.183281 0.0516828 -35.1113 0.123212 2.53793e-14 -36.2078 -1.83421e-13 -0.30519 -11.6157 -0.127157 -0.412032 -12.1708 -0.0826763 -0.497266 -12.7257 -0.0440801 -0.562288 -13.2803 -0.0111523 -0.608237 -13.8346 0.0160998 -0.636052 -14.3884 0.0374446 -0.646515 -14.9418 0.0524224 -0.640286 -15.4947 0.0603401 -0.617924 -16.0471 0.0602621 -0.579906 -16.5988 0.0509997 -0.526645 -17.15 0.0310967 -0.458496 -17.7006 -0.00118745 -0.375773 -18.2506 -0.0478989 -0.278748 -18.8 -0.111414 -0.167666 -19.3486 -0.194471 -0.16214 -20.2067 -0.277493 -0.280954 -21.3716 -0.318644 -0.408223 -22.5328 -0.328701 -0.541014 -23.6905 -0.311178 -0.676727 -24.8447 -0.270107 -0.813042 -25.9956 -0.210106 -0.947887 -27.1434 -0.136452 -1.07941 -28.2881 -0.0551755 -1.20594 -29.43 0.0268308 -1.32597 -30.569 0.101682 -1.43817 -31.7053 0.160341 -1.54129 -32.839 0.192428 -1.63423 -33.9701 0.185985 -1.71599 -35.0986 0.12719 -1.78564 -36.2248 -1.67049e-13 -0.702738 -11.1754 -0.129016 -0.850082 -11.7174 -0.0802097 -0.976065 -12.259 -0.0386356 -1.08201 -12.8 -0.00399874 -1.169 -13.3403 0.023761 -1.23797 -13.8798 0.0444685 -1.2897 -14.4184 0.0577104 -1.32484 -14.9561 0.0628296 -1.34398 -15.4927 0.0589175 -1.34762 -16.0282 0.0448029 -1.33618 -16.5627 0.0190376 -1.31006 -17.0959 -0.0201212 -1.26958 -17.628 -0.0747324 -1.21506 -18.1588 -0.147197 -1.14677 -18.6883 -0.240291 -1.20995 -19.5632 -0.331409 -1.41744 -20.7788 -0.375947 -1.62635 -21.9876 -0.386959 -1.83433 -23.1896 -0.368131 -2.0393 -24.3853 -0.323707 -2.2394 -25.5748 -0.25856 -2.43297 -26.7584 -0.178273 -2.61853 -27.9363 -0.0892415 -2.79472 -29.1087 0.00120182 -2.96036 -30.2756 0.0846419 -3.11437 -31.4373 0.1514 -3.25576 -32.5939 0.190315 -3.38365 -33.7455 0.188473 -3.49725 -34.8922 0.13087 -3.59584 -36.0342 -1.54303e-13 -1.12409 -10.759 -0.130733 -1.30538 -11.2872 -0.0779354 -1.46601 -11.8147 -0.0336212 -1.60717 -12.3413 0.00258254 -1.72987 -12.8669 0.0308021 -1.83497 -13.3912 0.0509174 -1.92322 -13.9143 0.0625603 -1.99524 -14.4359 0.0651098 -2.05161 -14.956 0.0576837 -2.0928 -15.4745 0.0391287 -2.11926 -15.9913 0.00800499 -2.13138 -16.5065 -0.037431 -2.1295 -17.0198 -0.0992495 -2.11393 -17.5314 -0.179874 -2.08497 -18.0411 -0.282115 -2.21335 -18.9247 -0.380604 -2.50696 -20.176 -0.428221 -2.79618 -21.4175 -0.440098 -3.07914 -22.6498 -0.420083 -3.35421 -23.8731 -0.372612 -3.61989 -25.0876 -0.302787 -3.87488 -26.2937 -0.216468 -4.118 -27.4917 -0.120379 -4.3482 -28.6817 -0.02225 -4.56453 -29.8639 0.0690258 -4.76615 -31.0385 0.143187 -4.9523 -32.2057 0.18836 -5.1223 -33.3657 0.190748 -5.27553 -34.5185 0.134255 -5.41146 -35.6644 -1.51112e-13 -1.56111 -10.3582 -0.132306 -1.77139 -10.8725 -0.0758528 -1.96194 -11.3857 -0.0290344 -2.13383 -11.8977 0.00859681 -2.28796 -12.4082 0.0372303 -2.42512 -12.917 0.0567995 -2.54597 -13.4241 0.0669798 -2.65112 -13.9292 0.067185 -2.74109 -14.4323 0.0565591 -2.81636 -14.9333 0.0339661 -2.87734 -15.4321 -0.00202444 -2.92441 -15.9287 -0.0531563 -2.95791 -16.4229 -0.121509 -2.97815 -16.9147 -0.209527 -2.98543 -17.4042 -0.320052 -3.17564 -18.2897 -0.42521 -3.55249 -19.5638 -0.475609 -3.92018 -20.8257 -0.488266 -4.27724 -22.076 -0.467175 -4.62237 -23.3149 -0.41695 -4.95443 -24.5427 -0.342899 -5.27239 -25.7599 -0.251127 -5.57534 -26.9666 -0.148656 -5.86247 -28.1632 -0.0435691 -6.13305 -29.3498 0.0548096 -6.38645 -30.5266 0.135694 -6.6221 -31.6939 0.186562 -6.83948 -32.8518 0.192816 -7.03814 -34.0005 0.137348 -7.2177 -35.1401 -1.36579e-13 -2.00788 -9.96713 -0.133737 -2.24332 -10.4677 -0.0739614 -2.4601 -10.9668 -0.0248724 -2.65913 -11.4641 0.0140489 -2.84122 -11.9594 0.0430526 -3.00707 -12.4526 0.0621224 -3.15728 -12.9435 0.0709757 -3.2924 -13.4319 0.0690591 -3.41292 -13.9178 0.0555419 -3.51927 -14.4011 0.0293053 -3.61184 -14.8817 -0.0110723 -3.691 -15.3594 -0.0673336 -3.75708 -15.8343 -0.141567 -3.81036 -16.3062 -0.236233 -3.85114 -16.7751 -0.354203 -4.09994 -17.6569 -0.465352 -4.55697 -18.9427 -0.518243 -5.00091 -20.2143 -0.531596 -5.43065 -21.472 -0.50954 -5.84518 -22.7163 -0.456843 -6.24362 -23.9474 -0.379 -6.6252 -25.1658 -0.282336 -6.98923 -26.3716 -0.174136 -7.3351 -27.5652 -0.062798 -7.66228 -28.7468 0.0419699 -7.97031 -29.9166 0.128912 -8.25876 -31.0749 0.184924 -8.52729 -32.2218 0.19468 -8.77558 -33.3575 0.140151 -9.00337 -34.4821 -1.21515e-13 -2.46008 -9.58151 -0.135024 -2.71766 -10.0687 -0.0722607 -2.95769 -10.5537 -0.0211332 -3.18096 -11.0365 0.0189432 -3.38817 -11.5168 0.0482749 -3.57992 -11.9944 0.0668932 -3.75677 -12.4691 0.0745541 -3.9192 -12.9409 0.0707356 -4.06766 -13.4096 0.0546307 -4.20253 -13.8751 0.0251369 -4.32418 -14.3373 -0.0191583 -4.43295 -14.7961 -0.0799963 -4.52915 -15.2515 -0.159472 -4.61305 -15.7035 -0.260062 -4.68492 -16.1519 -0.384663 -4.98923 -17.025 -0.501143 -5.52323 -18.3131 -0.556248 -6.04096 -19.585 -0.570217 -6.54158 -20.8412 -0.547299 -7.02434 -22.0819 -0.492403 -7.48858 -23.3076 -0.411189 -7.93372 -24.5186 -0.310176 -8.35929 -25.7152 -0.196879 -8.76483 -26.8977 -0.0799771 -9.14998 -28.0663 0.0304846 -9.51441 -29.2212 0.122833 -9.85786 -30.3627 0.183447 -10.1801 -31.491 0.196344 -10.4809 -32.6062 0.142666 -10.7602 -33.7086 -1.06194e-13 -2.91443 -9.19805 -0.136169 -3.19175 -9.67213 -0.07075 -3.45264 -10.1435 -0.0178145 -3.69777 -10.612 0.0232838 -3.92775 -11.0774 0.052903 -4.14311 -11.5396 0.071118 -4.34432 -11.9982 0.0777206 -4.53181 -12.4534 0.0722177 -4.70598 -12.9049 0.0538241 -4.86718 -13.3526 0.0214527 -5.01575 -13.7965 -0.0263003 -5.15199 -14.2365 -0.0911745 -5.27617 -14.6725 -0.17527 -5.38858 -15.1044 -0.281078 -5.48944 -15.5323 -0.411518 -5.84632 -16.3927 -0.532687 -6.45402 -17.6748 -0.589735 -7.0429 -18.939 -0.604244 -7.61232 -20.1857 -0.580566 -8.16176 -21.4153 -0.523736 -8.69073 -22.6281 -0.439558 -9.19886 -23.8244 -0.334721 -9.68579 -25.0046 -0.216943 -10.1512 -26.1689 -0.0951442 -10.595 -27.3176 0.0203329 -11.0168 -28.4509 0.117451 -11.4165 -29.5691 0.18213 -11.7941 -30.6723 0.197813 -12.1493 -31.7607 0.144895 -12.4823 -32.8346 -1.02378e-13 -3.36847 -8.81428 -0.13717 -3.6636 -9.27567 -0.0694292 -3.9434 -9.73371 -0.0149147 -4.20846 -10.1882 0.027074 -4.45927 -10.6389 0.0569418 -4.6963 -11.0857 0.0748025 -4.91996 -11.5285 0.0804804 -5.13062 -11.9672 0.0735083 -5.32863 -12.4016 0.053121 -5.5143 -12.8316 0.0182454 -5.68792 -13.2573 -0.0325142 -5.84978 -13.6785 -0.100896 -6.00013 -14.0952 -0.189003 -6.1392 -14.5073 -0.29934 -6.26723 -14.9147 -0.434844 -6.67389 -15.7586 -0.560078 -7.352 -17.0276 -0.618808 -8.00924 -18.2771 -0.63378 -8.64519 -19.5075 -0.609443 -9.25948 -20.7192 -0.550937 -9.85179 -21.9126 -0.46419 -10.4219 -23.0879 -0.356041 -10.9695 -24.2454 -0.234379 -11.4946 -25.3856 -0.108334 -11.9969 -26.5085 0.0114954 -12.4764 -27.6144 0.112757 -12.9331 -28.7036 0.180976 -13.3668 -29.7763 0.199089 -13.7776 -30.8327 0.146841 -14.1654 -31.8729 -9.28025e-14 -3.82033 -8.42832 -0.138028 -4.13169 -8.87736 -0.0682977 -4.42883 -9.32231 -0.0124321 -4.71221 -9.763 0.0303171 -4.98226 -10.1993 0.0603955 -5.23937 -10.631 0.0779515 -5.48388 -11.058 0.0828378 -5.71611 -11.4803 0.0746099 -5.93637 -11.8978 0.0525203 -6.14493 -12.3103 0.0155084 -6.34204 -12.7178 -0.0378142 -6.52796 -13.1203 -0.109183 -6.70289 -13.5178 -0.200706 -6.86707 -13.9101 -0.314897 -7.02069 -14.2972 -0.45471 -7.47452 -15.1216 -0.5834 -8.21972 -16.371 -0.643556 -8.94247 -17.5996 -0.658921 -9.6425 -18.8077 -0.634021 -10.3196 -19.9958 -0.574089 -10.9736 -21.164 -0.48516 -11.6043 -22.3128 -0.374196 -12.2116 -23.4424 -0.249233 -12.7956 -24.5531 -0.119579 -13.3561 -25.6452 0.00395477 -13.8931 -26.7189 0.108747 -14.4066 -27.7744 0.179986 -14.8968 -28.812 0.200177 -15.3636 -29.8319 0.148505 -15.8071 -30.8342 -8.35366e-14 -4.26857 -8.03874 -0.138743 -4.59491 -8.47572 -0.0673552 -4.9081 -8.90784 -0.0103654 -5.20851 -9.33496 0.0330156 -5.49648 -9.75695 0.063268 -5.77234 -10.1737 0.0805693 -6.03638 -10.5851 0.0847965 -6.28886 -10.9912 0.0755246 -6.53005 -11.3918 0.0520211 -6.76017 -11.7868 0.0132361 -6.97944 -12.1763 -0.0422123 -7.18808 -12.5603 -0.116058 -7.38628 -12.9386 -0.210411 -7.57423 -13.3112 -0.327793 -7.75212 -13.6782 -0.471173 -8.25063 -14.4801 -0.602723 -9.0596 -15.7044 -0.664058 -9.84494 -16.9066 -0.679745 -10.6065 -18.0872 -0.654379 -11.3442 -19.2464 -0.593267 -12.0579 -20.3846 -0.502533 -12.7477 -21.502 -0.38924 -13.4134 -22.599 -0.261547 -14.0552 -23.6759 -0.128905 -14.673 -24.7328 -0.00230452 -15.2669 -25.7701 0.105414 -15.8371 -26.7879 0.179159 -16.3835 -27.7865 0.201078 -16.9063 -28.7661 0.149889 -17.4056 -29.7269 -7.19666e-14 -4.71209 -7.64445 -0.139316 -5.05242 -8.0696 -0.0666016 -5.38063 -8.48908 -0.00871338 -5.697 -8.90278 0.0351717 -6.00183 -9.31063 0.0655622 -6.29537 -9.71253 0.0826593 -6.57785 -10.1085 0.0863597 -6.84949 -10.4983 0.0762542 -7.1105 -10.8821 0.0516227 -7.36109 -11.2598 0.0114239 -7.60142 -11.6313 -0.0457186 -7.83169 -11.9967 -0.121537 -8.05205 -12.3559 -0.218144 -8.26267 -12.709 -0.338066 -8.46371 -13.0559 -0.484285 -9.00455 -13.8328 -0.618108 -9.87397 -15.0269 -0.68038 -10.7189 -16.1979 -0.696322 -11.5394 -17.3461 -0.670584 -12.3353 -18.472 -0.608533 -13.1067 -19.5757 -0.516364 -13.8537 -20.6576 -0.40122 -14.5763 -21.718 -0.271355 -15.2746 -22.7571 -0.136337 -15.9487 -23.7751 -0.00729563 -16.5986 -24.7724 0.102753 -17.2246 -25.7491 0.178496 -17.8267 -26.7055 0.201796 -18.4052 -27.6417 0.150994 -18.9601 -28.558 -6.49462e-14 -5.15012 -7.24466 -0.139745 -5.50364 -7.65811 -0.0660365 -5.84604 -8.06506 -0.00747515 -6.17755 -8.46544 0.0367873 -6.49838 -8.8592 0.0672807 -6.80872 -9.2463 0.0842244 -7.10876 -9.62673 0.0875299 -7.39867 -10.0005 0.0768001 -7.67863 -10.3675 0.0513244 -7.94878 -10.7278 0.0100681 -8.20928 -11.0813 -0.0483412 -8.46027 -11.4282 -0.125634 -8.70189 -11.7683 -0.223925 -8.93427 -12.1018 -0.345745 -9.15755 -12.4286 -0.494083 -9.73847 -13.1782 -0.629605 -10.665 -14.3375 -0.692574 -11.5665 -15.4728 -0.708706 -12.4431 -16.5845 -0.68269 -13.2948 -17.673 -0.619938 -14.1217 -18.7384 -0.526698 -14.924 -19.781 -0.410172 -15.7017 -20.8012 -0.278686 -16.4549 -21.7991 -0.141894 -17.1839 -22.775 -0.0110293 -17.8887 -23.7292 0.100761 -18.5696 -24.6619 0.177999 -19.2267 -25.5732 0.202333 -19.8601 -26.4635 0.151822 -20.4701 -27.3329 -5.99547e-14 -5.58207 -6.83879 -0.140031 -5.94818 -7.24061 -0.0656599 -6.30415 -7.63505 -0.00665005 -6.65014 -8.0221 0.0378636 -6.98629 -8.40175 0.0684254 -7.31276 -8.77402 0.0852666 -7.62966 -9.1389 0.0883089 -7.93715 -9.49641 0.0771635 -8.23533 -9.84658 0.0511257 -8.52434 -10.1894 0.00916573 -8.80428 -10.5249 -0.0500862 -9.07528 -10.8532 -0.12836 -9.33744 -11.1742 -0.22777 -9.59087 -11.488 -0.350852 -9.83567 -11.7947 -0.500599 -10.4545 -12.5147 -0.637248 -11.4348 -13.635 -0.700681 -12.3898 -14.7306 -0.716939 -13.3196 -15.802 -0.690737 -14.2245 -16.8493 -0.62752 -15.1046 -17.8729 -0.533568 -15.96 -18.8729 -0.416124 -16.7908 -19.8497 -0.283562 -17.5973 -20.8035 -0.14559 -18.3796 -21.7345 -0.0135138 -19.1379 -22.6429 0.0994345 -19.8725 -23.529 0.177667 -20.5834 -24.393 0.20269 -21.2709 -25.2351 0.152374 -21.9352 -26.0556 -6.63019e-14 -6.00758 -6.42649 -0.140174 -6.38585 -6.81662 -0.0654717 -6.75493 -7.19847 -0.00623762 -7.1149 -7.57209 0.0384015 -7.46587 -7.93752 0.0689974 -7.80794 -8.29481 0.0857873 -8.14118 -8.644 0.0886982 -8.46569 -8.98515 0.077345 -8.78156 -9.3183 0.0510265 -9.08887 -9.64351 0.00871503 -9.38771 -9.96084 -0.0509577 -9.67816 -10.2703 -0.129721 -9.9603 -10.5721 -0.22969 -10.2342 -10.8661 -0.353401 -10.5 -11.1524 -0.503852 -11.1546 -11.8408 -0.641064 -12.1852 -12.918 -0.704728 -13.1905 -13.9702 -0.721049 -14.1707 -14.9977 -0.694754 -15.126 -16.0006 -0.631305 -16.0567 -16.9791 -0.536997 -16.9628 -17.9336 -0.419095 -17.8447 -18.8642 -0.285996 -18.7025 -19.7712 -0.147436 -19.5364 -20.6548 -0.0147547 -20.3467 -21.5151 0.0987719 -21.1335 -22.3525 0.177501 -21.897 -23.1671 0.202868 -22.6375 -23.9592 0.152649 -23.3551 -24.729 -5.21064e-14 -6.42649 -6.00758 -0.140174 -6.81662 -6.38585 -0.0654717 -7.19847 -6.75493 -0.00623762 -7.57209 -7.1149 0.0384015 -7.93752 -7.46587 0.0689974 -8.29481 -7.80794 0.0857873 -8.644 -8.14118 0.0886982 -8.98515 -8.46569 0.077345 -9.3183 -8.78156 0.0510265 -9.64351 -9.08887 0.00871503 -9.96084 -9.38771 -0.0509577 -10.2703 -9.67816 -0.129721 -10.5721 -9.9603 -0.22969 -10.8661 -10.2342 -0.353401 -11.1524 -10.5 -0.503852 -11.8408 -11.1546 -0.641064 -12.918 -12.1852 -0.704728 -13.9702 -13.1905 -0.721049 -14.9977 -14.1707 -0.694754 -16.0006 -15.126 -0.631305 -16.9791 -16.0567 -0.536997 -17.9336 -16.9628 -0.419095 -18.8642 -17.8447 -0.285996 -19.7712 -18.7025 -0.147436 -20.6548 -19.5364 -0.0147547 -21.5151 -20.3467 0.0987719 -22.3525 -21.1335 0.177501 -23.1671 -21.897 0.202868 -23.9592 -22.6375 0.152649 -24.729 -23.3551 -5.99278e-14 -6.83879 -5.58207 -0.140031 -7.24061 -5.94818 -0.0656599 -7.63505 -6.30415 -0.00665005 -8.0221 -6.65014 0.0378636 -8.40175 -6.98629 0.0684254 -8.77402 -7.31276 0.0852666 -9.1389 -7.62966 0.0883089 -9.49641 -7.93715 0.0771635 -9.84658 -8.23533 0.0511257 -10.1894 -8.52434 0.00916573 -10.5249 -8.80428 -0.0500862 -10.8532 -9.07528 -0.12836 -11.1742 -9.33744 -0.22777 -11.488 -9.59087 -0.350852 -11.7947 -9.83567 -0.500599 -12.5147 -10.4545 -0.637248 -13.635 -11.4348 -0.700681 -14.7306 -12.3898 -0.716939 -15.802 -13.3196 -0.690737 -16.8493 -14.2245 -0.62752 -17.8729 -15.1046 -0.533568 -18.8729 -15.96 -0.416124 -19.8497 -16.7908 -0.283562 -20.8035 -17.5973 -0.14559 -21.7345 -18.3796 -0.0135138 -22.6429 -19.1379 0.0994345 -23.529 -19.8725 0.177667 -24.393 -20.5834 0.20269 -25.2351 -21.2709 0.152374 -26.0556 -21.9352 -6.45459e-14 -7.24466 -5.15012 -0.139745 -7.65811 -5.50364 -0.0660365 -8.06506 -5.84604 -0.00747515 -8.46544 -6.17755 0.0367873 -8.8592 -6.49838 0.0672807 -9.2463 -6.80872 0.0842244 -9.62673 -7.10876 0.0875299 -10.0005 -7.39867 0.0768001 -10.3675 -7.67863 0.0513244 -10.7278 -7.94878 0.0100681 -11.0813 -8.20928 -0.0483412 -11.4282 -8.46027 -0.125634 -11.7683 -8.70189 -0.223925 -12.1018 -8.93427 -0.345745 -12.4286 -9.15755 -0.494083 -13.1782 -9.73847 -0.629605 -14.3375 -10.665 -0.692574 -15.4728 -11.5665 -0.708706 -16.5845 -12.4431 -0.68269 -17.673 -13.2948 -0.619938 -18.7384 -14.1217 -0.526698 -19.781 -14.924 -0.410172 -20.8012 -15.7017 -0.278686 -21.7991 -16.4549 -0.141894 -22.775 -17.1839 -0.0110293 -23.7292 -17.8887 0.100761 -24.6619 -18.5696 0.177999 -25.5732 -19.2267 0.202333 -26.4635 -19.8601 0.151822 -27.3329 -20.4701 -5.39592e-14 -7.64445 -4.71209 -0.139316 -8.0696 -5.05242 -0.0666016 -8.48908 -5.38063 -0.00871338 -8.90278 -5.697 0.0351717 -9.31063 -6.00183 0.0655622 -9.71253 -6.29537 0.0826593 -10.1085 -6.57785 0.0863597 -10.4983 -6.84949 0.0762542 -10.8821 -7.1105 0.0516227 -11.2598 -7.36109 0.0114239 -11.6313 -7.60142 -0.0457186 -11.9967 -7.83169 -0.121537 -12.3559 -8.05205 -0.218144 -12.709 -8.26267 -0.338066 -13.0559 -8.46371 -0.484285 -13.8328 -9.00455 -0.618108 -15.0269 -9.87397 -0.68038 -16.1979 -10.7189 -0.696322 -17.3461 -11.5394 -0.670584 -18.472 -12.3353 -0.608533 -19.5757 -13.1067 -0.516364 -20.6576 -13.8537 -0.40122 -21.718 -14.5763 -0.271355 -22.7571 -15.2746 -0.136337 -23.7751 -15.9487 -0.00729563 -24.7724 -16.5986 0.102753 -25.7491 -17.2246 0.178496 -26.7055 -17.8267 0.201796 -27.6417 -18.4052 0.150994 -28.558 -18.9601 -6.04107e-14 -8.03874 -4.26857 -0.138743 -8.47572 -4.59491 -0.0673552 -8.90784 -4.9081 -0.0103654 -9.33496 -5.20851 0.0330156 -9.75695 -5.49648 0.063268 -10.1737 -5.77234 0.0805693 -10.5851 -6.03638 0.0847965 -10.9912 -6.28886 0.0755246 -11.3918 -6.53005 0.0520211 -11.7868 -6.76017 0.0132361 -12.1763 -6.97944 -0.0422123 -12.5603 -7.18808 -0.116058 -12.9386 -7.38628 -0.210411 -13.3112 -7.57423 -0.327793 -13.6782 -7.75212 -0.471173 -14.4801 -8.25063 -0.602723 -15.7044 -9.0596 -0.664058 -16.9066 -9.84494 -0.679745 -18.0872 -10.6065 -0.654379 -19.2464 -11.3442 -0.593267 -20.3846 -12.0579 -0.502533 -21.502 -12.7477 -0.38924 -22.599 -13.4134 -0.261547 -23.6759 -14.0552 -0.128905 -24.7328 -14.673 -0.00230452 -25.7701 -15.2669 0.105414 -26.7879 -15.8371 0.179159 -27.7865 -16.3835 0.201078 -28.7661 -16.9063 0.149889 -29.7269 -17.4056 -6.86491e-14 -8.42832 -3.82033 -0.138028 -8.87736 -4.13169 -0.0682977 -9.32231 -4.42883 -0.0124321 -9.763 -4.71221 0.0303171 -10.1993 -4.98226 0.0603955 -10.631 -5.23937 0.0779515 -11.058 -5.48388 0.0828378 -11.4803 -5.71611 0.0746099 -11.8978 -5.93637 0.0525203 -12.3103 -6.14493 0.0155084 -12.7178 -6.34204 -0.0378142 -13.1203 -6.52796 -0.109183 -13.5178 -6.70289 -0.200706 -13.9101 -6.86707 -0.314897 -14.2972 -7.02069 -0.45471 -15.1216 -7.47452 -0.5834 -16.371 -8.21972 -0.643556 -17.5996 -8.94247 -0.658921 -18.8077 -9.6425 -0.634021 -19.9958 -10.3196 -0.574089 -21.164 -10.9736 -0.48516 -22.3128 -11.6043 -0.374196 -23.4424 -12.2116 -0.249233 -24.5531 -12.7956 -0.119579 -25.6452 -13.3561 0.00395477 -26.7189 -13.8931 0.108747 -27.7744 -14.4066 0.179986 -28.812 -14.8968 0.200177 -29.8319 -15.3636 0.148505 -30.8342 -15.8071 -7.87098e-14 -8.81428 -3.36847 -0.13717 -9.27567 -3.6636 -0.0694292 -9.73371 -3.9434 -0.0149147 -10.1882 -4.20846 0.027074 -10.6389 -4.45927 0.0569418 -11.0857 -4.6963 0.0748025 -11.5285 -4.91996 0.0804804 -11.9672 -5.13062 0.0735083 -12.4016 -5.32863 0.053121 -12.8316 -5.5143 0.0182454 -13.2573 -5.68792 -0.0325142 -13.6785 -5.84978 -0.100896 -14.0952 -6.00013 -0.189003 -14.5073 -6.1392 -0.29934 -14.9147 -6.26723 -0.434844 -15.7586 -6.67389 -0.560078 -17.0276 -7.352 -0.618808 -18.2771 -8.00924 -0.63378 -19.5075 -8.64519 -0.609443 -20.7192 -9.25948 -0.550937 -21.9126 -9.85179 -0.46419 -23.0879 -10.4219 -0.356041 -24.2454 -10.9695 -0.234379 -25.3856 -11.4946 -0.108334 -26.5085 -11.9969 0.0114954 -27.6144 -12.4764 0.112757 -28.7036 -12.9331 0.180976 -29.7763 -13.3668 0.199089 -30.8327 -13.7776 0.146841 -31.8729 -14.1654 -8.89585e-14 -9.19805 -2.91443 -0.136169 -9.67213 -3.19175 -0.07075 -10.1435 -3.45264 -0.0178145 -10.612 -3.69777 0.0232838 -11.0774 -3.92775 0.052903 -11.5396 -4.14311 0.071118 -11.9982 -4.34432 0.0777206 -12.4534 -4.53181 0.0722177 -12.9049 -4.70598 0.0538241 -13.3526 -4.86718 0.0214527 -13.7965 -5.01575 -0.0263003 -14.2365 -5.15199 -0.0911745 -14.6725 -5.27617 -0.17527 -15.1044 -5.38858 -0.281078 -15.5323 -5.48944 -0.411518 -16.3927 -5.84632 -0.532687 -17.6748 -6.45402 -0.589735 -18.939 -7.0429 -0.604244 -20.1857 -7.61232 -0.580566 -21.4153 -8.16176 -0.523736 -22.6281 -8.69073 -0.439558 -23.8244 -9.19886 -0.334721 -25.0046 -9.68579 -0.216943 -26.1689 -10.1512 -0.0951442 -27.3176 -10.595 0.0203329 -28.4509 -11.0168 0.117451 -29.5691 -11.4165 0.18213 -30.6723 -11.7941 0.197813 -31.7607 -12.1493 0.144895 -32.8346 -12.4823 -1.02378e-13 -9.58151 -2.46008 -0.135024 -10.0687 -2.71766 -0.0722607 -10.5537 -2.95769 -0.0211332 -11.0365 -3.18096 0.0189432 -11.5168 -3.38817 0.0482749 -11.9944 -3.57992 0.0668932 -12.4691 -3.75677 0.0745541 -12.9409 -3.9192 0.0707356 -13.4096 -4.06766 0.0546307 -13.8751 -4.20253 0.0251369 -14.3373 -4.32418 -0.0191583 -14.7961 -4.43295 -0.0799963 -15.2515 -4.52915 -0.159472 -15.7035 -4.61305 -0.260062 -16.1519 -4.68492 -0.384663 -17.025 -4.98923 -0.501143 -18.3131 -5.52323 -0.556248 -19.585 -6.04096 -0.570217 -20.8412 -6.54158 -0.547299 -22.0819 -7.02434 -0.492403 -23.3076 -7.48858 -0.411189 -24.5186 -7.93372 -0.310176 -25.7152 -8.35929 -0.196879 -26.8977 -8.76483 -0.0799771 -28.0663 -9.14998 0.0304846 -29.2212 -9.51441 0.122833 -30.3627 -9.85786 0.183447 -31.491 -10.1801 0.196344 -32.6062 -10.4809 0.142666 -33.7086 -10.7602 -1.05786e-13 -9.96713 -2.00788 -0.133737 -10.4677 -2.24332 -0.0739614 -10.9668 -2.4601 -0.0248724 -11.4641 -2.65913 0.0140489 -11.9594 -2.84122 0.0430526 -12.4526 -3.00707 0.0621224 -12.9435 -3.15728 0.0709757 -13.4319 -3.2924 0.0690591 -13.9178 -3.41292 0.0555419 -14.4011 -3.51927 0.0293053 -14.8817 -3.61184 -0.0110723 -15.3594 -3.691 -0.0673336 -15.8343 -3.75708 -0.141567 -16.3062 -3.81036 -0.236233 -16.7751 -3.85114 -0.354203 -17.6569 -4.09994 -0.465352 -18.9427 -4.55697 -0.518243 -20.2143 -5.00091 -0.531596 -21.472 -5.43065 -0.50954 -22.7163 -5.84518 -0.456843 -23.9474 -6.24362 -0.379 -25.1658 -6.6252 -0.282336 -26.3716 -6.98923 -0.174136 -27.5652 -7.3351 -0.062798 -28.7468 -7.66228 0.0419699 -29.9166 -7.97031 0.128912 -31.0749 -8.25876 0.184924 -32.2218 -8.52729 0.19468 -33.3575 -8.77558 0.140151 -34.4821 -9.00337 -1.26666e-13 -10.3582 -1.56111 -0.132306 -10.8725 -1.77139 -0.0758528 -11.3857 -1.96194 -0.0290344 -11.8977 -2.13383 0.00859681 -12.4082 -2.28796 0.0372303 -12.917 -2.42512 0.0567995 -13.4241 -2.54597 0.0669798 -13.9292 -2.65112 0.067185 -14.4323 -2.74109 0.0565591 -14.9333 -2.81636 0.0339661 -15.4321 -2.87734 -0.00202444 -15.9287 -2.92441 -0.0531563 -16.4229 -2.95791 -0.121509 -16.9147 -2.97815 -0.209527 -17.4042 -2.98543 -0.320052 -18.2897 -3.17564 -0.42521 -19.5638 -3.55249 -0.475609 -20.8257 -3.92018 -0.488266 -22.076 -4.27724 -0.467175 -23.3149 -4.62237 -0.41695 -24.5427 -4.95443 -0.342899 -25.7599 -5.27239 -0.251127 -26.9666 -5.57534 -0.148656 -28.1632 -5.86247 -0.0435691 -29.3498 -6.13305 0.0548096 -30.5266 -6.38645 0.135694 -31.6939 -6.6221 0.186562 -32.8518 -6.83948 0.192816 -34.0005 -7.03814 0.137348 -35.1401 -7.2177 -1.25971e-13 -10.759 -1.12409 -0.130733 -11.2872 -1.30538 -0.0779354 -11.8147 -1.46601 -0.0336212 -12.3413 -1.60717 0.00258254 -12.8669 -1.72987 0.0308021 -13.3912 -1.83497 0.0509174 -13.9143 -1.92322 0.0625603 -14.4359 -1.99524 0.0651098 -14.956 -2.05161 0.0576837 -15.4745 -2.0928 0.0391287 -15.9913 -2.11926 0.00800499 -16.5065 -2.13138 -0.037431 -17.0198 -2.1295 -0.0992495 -17.5314 -2.11393 -0.179874 -18.0411 -2.08497 -0.282115 -18.9247 -2.21335 -0.380604 -20.176 -2.50696 -0.428221 -21.4175 -2.79618 -0.440098 -22.6498 -3.07914 -0.420083 -23.8731 -3.35421 -0.372612 -25.0876 -3.61989 -0.302787 -26.2937 -3.87488 -0.216468 -27.4917 -4.118 -0.120379 -28.6817 -4.3482 -0.02225 -29.8639 -4.56453 0.0690258 -31.0385 -4.76615 0.143187 -32.2057 -4.9523 0.18836 -33.3657 -5.1223 0.190748 -34.5185 -5.27553 0.134255 -35.6644 -5.41146 -1.51112e-13 -11.1754 -0.702738 -0.129016 -11.7174 -0.850082 -0.0802097 -12.259 -0.976065 -0.0386356 -12.8 -1.08201 -0.00399874 -13.3403 -1.169 0.023761 -13.8798 -1.23797 0.0444685 -14.4184 -1.2897 0.0577104 -14.9561 -1.32484 0.0628296 -15.4927 -1.34398 0.0589175 -16.0282 -1.34762 0.0448029 -16.5627 -1.33618 0.0190376 -17.0959 -1.31006 -0.0201212 -17.628 -1.26958 -0.0747324 -18.1588 -1.21506 -0.147197 -18.6883 -1.14677 -0.240291 -19.5632 -1.20995 -0.331409 -20.7788 -1.41744 -0.375947 -21.9876 -1.62635 -0.386959 -23.1896 -1.83433 -0.368131 -24.3853 -2.0393 -0.323707 -25.5748 -2.2394 -0.25856 -26.7584 -2.43297 -0.178273 -27.9363 -2.61853 -0.0892415 -29.1087 -2.79472 0.00120182 -30.2756 -2.96036 0.0846419 -31.4373 -3.11437 0.1514 -32.5939 -3.25576 0.190315 -33.7455 -3.38365 0.188473 -34.8922 -3.49725 0.13087 -36.0342 -3.59584 -1.59429e-13 -11.6157 -0.30519 -0.127157 -12.1708 -0.412032 -0.0826763 -12.7257 -0.497266 -0.0440801 -13.2803 -0.562288 -0.0111523 -13.8346 -0.608237 0.0160998 -14.3884 -0.636052 0.0374446 -14.9418 -0.646515 0.0524224 -15.4947 -0.640286 0.0603401 -16.0471 -0.617924 0.0602621 -16.5988 -0.579906 0.0509997 -17.15 -0.526645 0.0310967 -17.7006 -0.458496 -0.00118745 -18.2506 -0.375773 -0.0478989 -18.8 -0.278748 -0.111414 -19.3486 -0.167666 -0.194471 -20.2067 -0.16214 -0.277493 -21.3716 -0.280954 -0.318644 -22.5328 -0.408223 -0.328701 -23.6905 -0.541014 -0.311178 -24.8447 -0.676727 -0.270107 -25.9956 -0.813042 -0.210106 -27.1434 -0.947887 -0.136452 -28.2881 -1.07941 -0.0551755 -29.43 -1.20594 0.0268308 -30.569 -1.32597 0.101682 -31.7053 -1.43817 0.160341 -32.839 -1.54129 0.192428 -33.9701 -1.63423 0.185985 -35.0986 -1.71599 0.12719 -36.2248 -1.78564 -1.72154e-13 -12.0914 0.0569753 -0.125154 -12.6581 -0.000418001 -0.085336 -13.2248 -0.0367862 -0.0499578 -13.7914 -0.053482 -0.0188839 -14.3581 -0.0515855 0.0078104 -14.9248 -0.0319699 0.0298365 -15.4915 0.00465154 0.0466886 -16.0582 0.0576902 0.0576369 -16.6249 0.126656 0.0617195 -17.1916 0.211139 0.0577307 -17.7583 0.31079 0.0442074 -18.325 0.425315 0.0194125 -18.8917 0.55446 -0.0186857 -19.4584 0.698006 -0.0724368 -20.0251 0.855765 -0.144537 -20.8567 0.933548 -0.218716 -21.9532 0.90553 -0.25616 -23.0497 0.860544 -0.265173 -24.1463 0.80224 -0.249079 -25.2428 0.73385 -0.211678 -26.3393 0.658243 -0.157308 -27.4358 0.577978 -0.090911 -28.5323 0.495346 -0.0181118 -29.6288 0.412398 0.0546826 -30.7253 0.330982 0.12017 -31.8218 0.252764 0.170018 -32.9183 0.179251 0.194697 -34.0148 0.11181 0.183281 -35.1113 0.0516828 0.123212 -36.2078 2.53793e-14 -1.83421e-13 0.258819 -10.4111 -14.0437 0.13442 -10.996 -14.241 0.037083 -11.576 -14.436 -0.0343382 -12.1498 -14.629 -0.0806591 -12.7162 -14.82 -0.102473 -13.2737 -15.0093 -0.100223 -13.821 -15.1966 -0.0742581 -14.3568 -15.3821 -0.0248696 -14.8798 -15.5655 0.0476798 -15.3886 -15.7466 0.143134 -15.8819 -15.925 0.261226 -16.3586 -16.1004 0.401666 -16.8173 -16.2722 0.564132 -17.257 -16.4398 0.74826 -17.6765 -16.6027 0.854722 -18.3154 -16.8596 0.847228 -19.1597 -17.2613 0.817665 -19.9611 -17.725 0.771254 -20.716 -18.2512 0.712435 -21.4207 -18.8399 0.644956 -22.0715 -19.4917 0.571944 -22.6648 -20.207 0.495969 -23.1971 -20.9864 0.419093 -23.665 -21.8307 0.342915 -24.0651 -22.741 0.268604 -24.394 -23.7184 0.196932 -24.6486 -24.7646 0.128298 -24.8254 -25.8816 0.0627502 -24.9213 -27.0717 2.83879e-14 -24.9329 -28.3382 -0.105883 -10.0399 -13.9097 -0.263743 -10.6123 -14.1152 -0.395601 -11.1796 -14.3155 -0.502362 -11.7405 -14.5108 -0.584674 -12.2936 -14.7014 -0.643013 -12.8376 -14.8874 -0.677736 -13.3711 -15.0687 -0.689129 -13.8929 -15.2453 -0.677435 -14.4014 -15.4171 -0.642881 -14.8956 -15.584 -0.585694 -15.3741 -15.7456 -0.506116 -15.8358 -15.9016 -0.404419 -16.2793 -16.0515 -0.28091 -16.7037 -16.195 -0.135936 -17.1078 -16.3312 -0.0972055 -17.7833 -16.578 -0.191291 -18.7115 -16.9885 -0.295319 -19.5906 -17.4626 -0.404731 -20.4167 -18.0007 -0.515648 -21.1862 -18.6034 -0.624805 -21.8952 -19.2712 -0.729489 -22.5402 -20.0049 -0.827494 -23.1175 -20.8055 -0.917079 -23.6235 -21.674 -0.99693 -24.0548 -22.6118 -1.06613 -24.4079 -23.6207 -1.12415 -24.6794 -24.7026 -1.17079 -24.8658 -25.86 -1.2062 -24.9637 -27.0961 -1.23084 -24.9697 -28.4144 -0.483793 -9.68199 -13.7852 -0.671285 -10.2419 -13.9995 -0.833949 -10.7964 -14.2059 -0.972458 -11.3441 -14.4047 -1.08729 -11.8838 -14.5962 -1.17879 -12.414 -14.7804 -1.24722 -12.9334 -14.9574 -1.29279 -13.4407 -15.1271 -1.31567 -13.9345 -15.2896 -1.31606 -14.4138 -15.4446 -1.29412 -14.8771 -15.592 -1.25006 -15.3234 -15.7314 -1.18413 -15.7515 -15.8624 -1.0966 -16.1603 -15.9847 -0.987796 -16.5487 -16.0976 -1.01384 -17.2519 -16.334 -1.19272 -18.2472 -16.7489 -1.37077 -19.1882 -17.2283 -1.54394 -20.0708 -17.7726 -1.70878 -20.8915 -18.3827 -1.86239 -21.6462 -19.0595 -2.00237 -22.3314 -19.8039 -2.12678 -22.9432 -20.6171 -2.23409 -23.478 -21.5008 -2.32321 -23.9323 -22.4566 -2.39339 -24.3024 -23.4866 -2.44425 -24.5849 -24.5933 -2.47571 -24.7761 -25.7798 -2.48805 -24.8725 -27.0497 -2.48181 -24.8704 -28.4075 -0.870364 -9.33271 -13.6703 -1.08451 -9.88025 -13.8936 -1.27501 -10.422 -14.1066 -1.44233 -10.9566 -14.3097 -1.5868 -11.4828 -14.5031 -1.70862 -11.9991 -14.6868 -1.80796 -12.5042 -14.8609 -1.88494 -12.9969 -15.0255 -1.93968 -13.476 -15.1804 -1.9723 -13.9401 -15.3257 -1.98292 -14.388 -15.461 -1.97172 -14.8188 -15.5862 -1.93888 -15.2312 -15.7009 -1.88464 -15.6242 -15.8048 -1.80931 -15.9969 -15.8973 -1.89716 -16.7199 -16.1233 -2.15864 -17.7675 -16.5395 -2.4097 -18.7564 -17.0204 -2.64668 -19.6827 -17.5666 -2.86645 -20.5425 -18.1794 -3.06637 -21.3319 -18.8596 -3.24426 -22.0471 -19.6087 -3.39835 -22.6844 -20.4282 -3.52729 -23.2399 -21.32 -3.63007 -23.71 -22.2861 -3.70607 -24.0911 -23.329 -3.75496 -24.3795 -24.4519 -3.77675 -24.5715 -25.6583 -3.77174 -24.6636 -26.9524 -3.74048 -24.6518 -28.3393 -1.26228 -8.98877 -13.565 -1.50067 -9.52423 -13.7973 -1.71658 -10.0534 -14.0173 -1.91028 -10.575 -14.2251 -2.08193 -11.0877 -14.421 -2.23164 -11.5901 -14.6052 -2.35948 -12.081 -14.7776 -2.46547 -12.559 -14.9383 -2.54967 -13.0231 -15.0874 -2.61213 -13.472 -15.2246 -2.65293 -13.9045 -15.3499 -2.67217 -14.3196 -15.463 -2.67002 -14.7163 -15.5637 -2.64667 -15.0934 -15.6517 -2.60236 -15.4502 -15.7264 -2.74912 -16.1862 -15.9424 -3.09066 -17.2731 -16.3576 -3.41326 -18.2977 -16.8372 -3.71353 -19.2561 -17.3823 -3.98855 -20.1445 -17.994 -4.23587 -20.9587 -18.6738 -4.45344 -21.6951 -19.4232 -4.63961 -22.3497 -20.244 -4.7931 -22.9188 -21.1384 -4.91296 -23.3985 -22.109 -4.99859 -23.7853 -23.1586 -5.04968 -24.0754 -24.2909 -5.06623 -24.2652 -25.5098 -5.04849 -24.3508 -26.8203 -4.99699 -24.3283 -28.2282 -1.65706 -8.6477 -13.4693 -1.91773 -9.17135 -13.7104 -2.15701 -9.6882 -13.9373 -2.37501 -10.1969 -14.1501 -2.57177 -10.6962 -14.3491 -2.74727 -11.1847 -14.5344 -2.90149 -11.6613 -14.706 -3.03438 -12.1247 -14.864 -3.14593 -12.5738 -15.0085 -3.23611 -13.0074 -15.1392 -3.30495 -13.4245 -15.2561 -3.35251 -13.8239 -15.3591 -3.37889 -14.2047 -15.4478 -3.38425 -14.566 -15.522 -3.36878 -14.9069 -15.5813 -3.57156 -15.6498 -15.7879 -3.99039 -16.7643 -16.2005 -4.38268 -17.8138 -16.677 -4.74523 -18.7942 -17.2187 -5.07527 -19.7017 -17.827 -5.37044 -20.5322 -18.5035 -5.62878 -21.2818 -19.2499 -5.84867 -21.9467 -20.0684 -