<?xml version="1.0"?> 
<VTKFile type="StructuredGrid" version="0.1"> 
<StructuredGrid WholeExtent="0 14 0 14 0 29"> 
<Piece Extent="0 14 0 14 0 29"> 
<PointData>
<DataArray type="Float32" Name="efield" format="ascii" NumberOfComponents="3"> 
0 0 -0.0939036 0 0 -0.101395 0 0 -0.107735 0 0 -0.112921 0 0 -0.116955 0 0 -0.119837 0 0 -0.121566 0 0 -0.122142 0 0 -0.121566 0 0 -0.119837 0 0 -0.116955 0 0 -0.112921 0 0 -0.107735 0 0 -0.101395 0 0 -0.0939036 0 0 -0.101395 0 0 -0.109224 0 0 -0.115849 0 0 -0.121269 0 0 -0.125485 0 0 -0.128496 0 0 -0.130302 0 0 -0.130905 0 0 -0.130302 0 0 -0.128496 0 0 -0.125485 0 0 -0.121269 0 0 -0.115849 0 0 -0.109224 0 0 -0.101395 0 0 -0.107735 0 0 -0.115849 0 0 -0.122715 0 0 -0.128332 0 0 -0.132701 0 0 -0.135822 0 0 -0.137695 0 0 -0.138319 0 0 -0.137695 0 0 -0.135822 0 0 -0.132701 0 0 -0.128332 0 0 -0.122715 0 0 -0.115849 0 0 -0.107735 0 0 -0.112921 0 0 -0.121269 0 0 -0.128332 0 0 -0.134111 0 0 -0.138606 0 0 -0.141817 0 0 -0.143743 0 0 -0.144385 0 0 -0.143743 0 0 -0.141817 0 0 -0.138606 0 0 -0.134111 0 0 -0.128332 0 0 -0.121269 0 0 -0.112921 0 0 -0.116955 0 0 -0.125485 0 0 -0.132701 0 0 -0.138606 0 0 -0.143199 0 0 -0.146479 0 0 -0.148447 0 0 -0.149104 0 0 -0.148447 0 0 -0.146479 0 0 -0.143199 0 0 -0.138606 0 0 -0.132701 0 0 -0.125485 0 0 -0.116955 0 0 -0.119837 0 0 -0.128496 0 0 -0.135822 0 0 -0.141817 0 0 -0.146479 0 0 -0.14981 0 0 -0.151808 0 0 -0.152474 0 0 -0.151808 0 0 -0.14981 0 0 -0.146479 0 0 -0.141817 0 0 -0.135822 0 0 -0.128496 0 0 -0.119837 0 0 -0.121566 0 0 -0.130302 0 0 -0.137695 0 0 -0.143743 0 0 -0.148447 0 0 -0.151808 0 0 -0.153824 0 0 -0.154496 0 0 -0.153824 0 0 -0.151808 0 0 -0.148447 0 0 -0.143743 0 0 -0.137695 0 0 -0.130302 0 0 -0.121566 0 0 -0.122142 0 0 -0.130905 0 0 -0.138319 0 0 -0.144385 0 0 -0.149104 0 0 -0.152474 0 0 -0.154496 0 0 -0.15517 0 0 -0.154496 0 0 -0.152474 0 0 -0.149104 0 0 -0.144385 0 0 -0.138319 0 0 -0.130905 0 0 -0.122142 0 0 -0.121566 0 0 -0.130302 0 0 -0.137695 0 0 -0.143743 0 0 -0.148447 0 0 -0.151808 0 0 -0.153824 0 0 -0.154496 0 0 -0.153824 0 0 -0.151808 0 0 -0.148447 0 0 -0.143743 0 0 -0.137695 0 0 -0.130302 0 0 -0.121566 0 0 -0.119837 0 0 -0.128496 0 0 -0.135822 0 0 -0.141817 0 0 -0.146479 0 0 -0.14981 0 0 -0.151808 0 0 -0.152474 0 0 -0.151808 0 0 -0.14981 0 0 -0.146479 0 0 -0.141817 0 0 -0.135822 0 0 -0.128496 0 0 -0.119837 0 0 -0.116955 0 0 -0.125485 0 0 -0.132701 0 0 -0.138606 0 0 -0.143199 0 0 -0.146479 0 0 -0.148447 0 0 -0.149104 0 0 -0.148447 0 0 -0.146479 0 0 -0.143199 0 0 -0.138606 0 0 -0.132701 0 0 -0.125485 0 0 -0.116955 0 0 -0.112921 0 0 -0.121269 0 0 -0.128332 0 0 -0.134111 0 0 -0.138606 0 0 -0.141817 0 0 -0.143743 0 0 -0.144385 0 0 -0.143743 0 0 -0.141817 0 0 -0.138606 0 0 -0.134111 0 0 -0.128332 0 0 -0.121269 0 0 -0.112921 0 0 -0.107735 0 0 -0.115849 0 0 -0.122715 0 0 -0.128332 0 0 -0.132701 0 0 -0.135822 0 0 -0.137695 0 0 -0.138319 0 0 -0.137695 0 0 -0.135822 0 0 -0.132701 0 0 -0.128332 0 0 -0.122715 0 0 -0.115849 0 0 -0.107735 0 0 -0.101395 0 0 -0.109224 0 0 -0.115849 0 0 -0.121269 0 0 -0.125485 0 0 -0.128496 0 0 -0.130302 0 0 -0.130905 0 0 -0.130302 0 0 -0.128496 0 0 -0.125485 0 0 -0.121269 0 0 -0.115849 0 0 -0.109224 0 0 -0.101395 0 0 -0.0939036 0 0 -0.101395 0 0 -0.107735 0 0 -0.112921 0 0 -0.116955 0 0 -0.119837 0 0 -0.121566 0 0 -0.122142 0 0 -0.121566 0 0 -0.119837 0 0 -0.116955 0 0 -0.112921 0 0 -0.107735 0 0 -0.101395 0 0 -0.0939036 2.24769e-14 -0.0152714 -0.050226 0.00146715 -0.0145569 -0.0552531 0.00287639 -0.0137845 -0.0595069 0.00422774 -0.0129543 -0.0629872 0.0055212 -0.0120661 -0.0656941 0.00675676 -0.01112 -0.0676277 0.00793442 -0.010116 -0.0687878 0.00905418 -0.00905418 -0.0691745 0.010116 -0.00793442 -0.0687878 0.01112 -0.00675676 -0.0676277 0.0120661 -0.0055212 -0.0656941 0.0129543 -0.00422774 -0.0629872 0.0137845 -0.00287639 -0.0595069 0.0145569 -0.00146715 -0.0552531 0.0152714 -1.44279e-14 -0.050226 -0.00146715 -0.0145569 -0.0552531 1.88985e-14 -0.0137349 -0.0605307 0.00141752 -0.0128633 -0.0649964 0.00278541 -0.011942 -0.0686502 0.00410368 -0.0109711 -0.071492 0.00537232 -0.00995063 -0.0735218 0.00659134 -0.00888049 -0.0747397 0.00776073 -0.00776073 -0.0751457 0.00888049 -0.00659134 -0.0747397 0.00995063 -0.00537232 -0.0735218 0.0109711 -0.00410368 -0.071492 0.011942 -0.00278541 -0.0686502 0.0128633 -0.00141752 -0.0649964 0.0137349 -1.76305e-14 -0.0605307 0.0145569 0.00146715 -0.0552531 -0.00287639 -0.0137845 -0.0595069 -0.00141752 -0.0128633 -0.0649964 1.45735e-14 -0.0119007 -0.0696414 0.00137616 -0.0108967 -0.0734419 0.00271097 -0.00985137 -0.0763978 0.00400443 -0.00876469 -0.0785092 0.00525653 -0.00763666 -0.079776 0.00646727 -0.00646727 -0.0801983 0.00763666 -0.00525653 -0.079776 0.00876469 -0.00400443 -0.0785092 0.00985137 -0.00271097 -0.0763978 0.0108967 -0.00137616 -0.0734419 0.0119007 -2.0888e-14 -0.0696414 0.0128633 0.00141752 -0.0649964 0.0137845 0.00287639 -0.0595069 -0.00422774 -0.0129543 -0.0629872 -0.00278541 -0.011942 -0.0686502 -0.00137616 -0.0108967 -0.0734419 9.48673e-15 -0.00981829 -0.0773624 0.00134308 -0.0087068 -0.0804117 0.00265308 -0.00756222 -0.0825897 0.00392999 -0.00638456 -0.0838966 0.00517382 -0.00517382 -0.0843322 0.00638456 -0.00392999 -0.0838966 0.00756222 -0.00265308 -0.0825897 0.0087068 -0.00134308 -0.0804117 0.00981829 -2.41856e-14 -0.0773624 0.0108967 0.00137616 -0.0734419 0.011942 0.00278541 -0.0686502 0.0129543 0.00422774 -0.0629872 -0.0055212 -0.0120661 -0.0656941 -0.00410368 -0.0109711 -0.071492 -0.00271097 -0.00985137 -0.0763978 -0.00134308 -0.0087068 -0.0804117 3.61232e-15 -0.00753741 -0.0835336 0.00131827 -0.00634321 -0.0857635 0.00261172 -0.00512419 -0.0871015 0.00388036 -0.00388036 -0.0875475 0.00512419 -0.00261172 -0.0871015 0.00634321 -0.00131827 -0.0857635 0.00753741 -2.75327e-14 -0.0835336 0.0087068 0.00134308 -0.0804117 0.00985137 0.00271097 -0.0763978 0.0109711 0.00410368 -0.071492 0.0120661 0.0055212 -0.0656941 -0.00675676 -0.01112 -0.0676277 -0.00537232 -0.00995063 -0.0735218 -0.00400443 -0.00876469 -0.0785092 -0.00265308 -0.00756222 -0.0825897 -0.00131827 -0.00634321 -0.0857635 -3.06658e-15 -0.00510765 -0.0880305 0.00130173 -0.00385555 -0.0893907 0.00258691 -0.00258691 -0.0898441 0.00385555 -0.00130173 -0.0893907 0.00510765 -3.09226e-14 -0.0880305 0.00634321 0.00131827 -0.0857635 0.00756222 0.00265308 -0.0825897 0.00876469 0.00400443 -0.0785092 0.00995063 0.00537232 -0.0735218 0.01112 0.00675676 -0.0676277 -0.00793442 -0.010116 -0.0687878 -0.00659134 -0.00888049 -0.0747397 -0.00525653 -0.00763666 -0.079776 -0.00392999 -0.00638456 -0.0838966 -0.00261172 -0.00512419 -0.0871015 -0.00130173 -0.00385555 -0.0893907 -1.05709e-14 -0.00257864 -0.0907642 0.00129345 -0.00129345 -0.091222 0.00257864 -3.43606e-14 -0.0907642 0.00385555 0.00130173 -0.0893907 0.00512419 0.00261172 -0.0871015 0.00638456 0.00392999 -0.0838966 0.00763666 0.00525653 -0.079776 0.00888049 0.00659134 -0.0747397 0.010116 0.00793442 -0.0687878 -0.00905418 -0.00905418 -0.0691745 -0.00776073 -0.00776073 -0.0751457 -0.00646727 -0.00646727 -0.0801983 -0.00517382 -0.00517382 -0.0843322 -0.00388036 -0.00388036 -0.0875475 -0.00258691 -0.00258691 -0.0898441 -0.00129345 -0.00129345 -0.091222 -1.89219e-14 -3.78353e-14 -0.0916814 0.00129345 0.00129345 -0.091222 0.00258691 0.00258691 -0.0898441 0.00388036 0.00388036 -0.0875475 0.00517382 0.00517382 -0.0843322 0.00646727 0.00646727 -0.0801983 0.00776073 0.00776073 -0.0751457 0.00905418 0.00905418 -0.0691745 -0.010116 -0.00793442 -0.0687878 -0.00888049 -0.00659134 -0.0747397 -0.00763666 -0.00525653 -0.079776 -0.00638456 -0.00392999 -0.0838966 -0.00512419 -0.00261172 -0.0871015 -0.00385555 -0.00130173 -0.0893907 -0.00257864 -3.49609e-14 -0.0907642 -0.00129345 0.00129345 -0.091222 -1.29309e-14 0.00257864 -0.0907642 0.00130173 0.00385555 -0.0893907 0.00261172 0.00512419 -0.0871015 0.00392999 0.00638456 -0.0838966 0.00525653 0.00763666 -0.079776 0.00659134 0.00888049 -0.0747397 0.00793442 0.010116 -0.0687878 -0.01112 -0.00675676 -0.0676277 -0.00995063 -0.00537232 -0.0735218 -0.00876469 -0.00400443 -0.0785092 -0.00756222 -0.00265308 -0.0825897 -0.00634321 -0.00131827 -0.0857635 -0.00510765 -3.18396e-14 -0.0880305 -0.00385555 0.00130173 -0.0893907 -0.00258691 0.00258691 -0.0898441 -0.00130173 0.00385555 -0.0893907 -7.49792e-15 0.00510765 -0.0880305 0.00131827 0.00634321 -0.0857635 0.00265308 0.00756222 -0.0825897 0.00400443 0.00876469 -0.0785092 0.00537232 0.00995063 -0.0735218 0.00675676 0.01112 -0.0676277 -0.0120661 -0.0055212 -0.0656941 -0.0109711 -0.00410368 -0.071492 -0.00985137 -0.00271097 -0.0763978 -0.0087068 -0.00134308 -0.0804117 -0.00753741 -2.84972e-14 -0.0835336 -0.00634321 0.00131827 -0.0857635 -0.00512419 0.00261172 -0.0871015 -0.00388036 0.00388036 -0.0875475 -0.00261172 0.00512419 -0.0871015 -0.00131827 0.00634321 -0.0857635 -2.61214e-15 0.00753741 -0.0835336 0.00134308 0.0087068 -0.0804117 0.00271097 0.00985137 -0.0763978 0.00410368 0.0109711 -0.071492 0.0055212 0.0120661 -0.0656941 -0.0129543 -0.00422774 -0.0629872 -0.011942 -0.00278541 -0.0686502 -0.0108967 -0.00137616 -0.0734419 -0.00981829 -2.49424e-14 -0.0773624 -0.0087068 0.00134308 -0.0804117 -0.00756222 0.00265308 -0.0825897 -0.00638456 0.00392999 -0.0838966 -0.00517382 0.00517382 -0.0843322 -0.00392999 0.00638456 -0.0838966 -0.00265308 0.00756222 -0.0825897 -0.00134308 0.0087068 -0.0804117 1.73874e-15 0.00981829 -0.0773624 0.00137616 0.0108967 -0.0734419 0.00278541 0.011942 -0.0686502 0.00422774 0.0129543 -0.0629872 -0.0137845 -0.00287639 -0.0595069 -0.0128633 -0.00141752 -0.0649964 -0.0119007 -2.11956e-14 -0.0696414 -0.0108967 0.00137616 -0.0734419 -0.00985137 0.00271097 -0.0763978 -0.00876469 0.00400443 -0.0785092 -0.00763666 0.00525653 -0.079776 -0.00646727 0.00646727 -0.0801983 -0.00525653 0.00763666 -0.079776 -0.00400443 0.00876469 -0.0785092 -0.00271097 0.00985137 -0.0763978 -0.00137616 0.0108967 -0.0734419 5.56358e-15 0.0119007 -0.0696414 0.00141752 0.0128633 -0.0649964 0.00287639 0.0137845 -0.0595069 -0.0145569 -0.00146715 -0.0552531 -0.0137349 -1.72646e-14 -0.0605307 -0.0128633 0.00141752 -0.0649964 -0.011942 0.00278541 -0.0686502 -0.0109711 0.00410368 -0.071492 -0.00995063 0.00537232 -0.0735218 -0.00888049 0.00659134 -0.0747397 -0.00776073 0.00776073 -0.0751457 -0.00659134 0.00888049 -0.0747397 -0.00537232 0.00995063 -0.0735218 -0.00410368 0.0109711 -0.071492 -0.00278541 0.011942 -0.0686502 -0.00141752 0.0128633 -0.0649964 8.87192e-15 0.0137349 -0.0605307 0.00146715 0.0145569 -0.0552531 -0.0152714 -1.31724e-14 -0.050226 -0.0145569 0.00146715 -0.0552531 -0.0137845 0.00287639 -0.0595069 -0.0129543 0.00422774 -0.0629872 -0.0120661 0.0055212 -0.0656941 -0.01112 0.00675676 -0.0676277 -0.010116 0.00793442 -0.0687878 -0.00905418 0.00905418 -0.0691745 -0.00793442 0.010116 -0.0687878 -0.00675676 0.01112 -0.0676277 -0.0055212 0.0120661 -0.0656941 -0.00422774 0.0129543 -0.0629872 -0.00287639 0.0137845 -0.0595069 -0.00146715 0.0145569 -0.0552531 1.16759e-14 0.0152714 -0.050226 4.13805e-14 -0.0253422 -0.00654836 0.00246598 -0.0241879 -0.0091108 0.00483107 -0.0229327 -0.011279 0.00709526 -0.0215765 -0.013053 0.00925855 -0.0201195 -0.0144328 0.011321 -0.0185616 -0.0154184 0.0132825 -0.0169028 -0.0160097 0.0151431 -0.0151431 -0.0162068 0.0169028 -0.0132825 -0.0160097 0.0185616 -0.011321 -0.0154184 0.0201195 -0.00925855 -0.0144328 0.0215765 -0.00709526 -0.013053 0.0229327 -0.00483107 -0.011279 0.0241879 -0.00246598 -0.0091108 0.0253422 -3.63208e-14 -0.00654836 -0.00246598 -0.0241879 -0.0091108 3.47385e-14 -0.0228462 -0.0118371 0.0023795 -0.021418 -0.0141439 0.00467252 -0.0199033 -0.0160314 0.00687905 -0.0183021 -0.0174993 0.00899911 -0.0166145 -0.0185479 0.0110327 -0.0148404 -0.0191771 0.0129798 -0.0129798 -0.0193868 0.0148404 -0.0110327 -0.0191771 0.0166145 -0.00899911 -0.0185479 0.0183021 -0.00687905 -0.0174993 0.0199033 -0.00467252 -0.0160314 0.021418 -0.0023795 -0.0141439 0.0228462 -4.30904e-14 -0.0118371 0.0241879 0.00246598 -0.0091108 -0.00483107 -0.0229327 -0.011279 -0.0023795 -0.021418 -0.0141439 2.66585e-14 -0.0198312 -0.0165681 0.00230743 -0.0181724 -0.0185515 0.00454279 -0.0164415 -0.0200941 0.00670609 -0.0146386 -0.021196 0.00879731 -0.0127636 -0.0218571 0.0108165 -0.0108165 -0.0220775 0.0127636 -0.00879731 -0.0218571 0.0146386 -0.00670609 -0.021196 0.0164415 -0.00454279 -0.0200941 0.0181724 -0.00230743 -0.0185515 0.0198312 -4.98926e-14 -0.0165681 0.021418 0.0023795 -0.0141439 0.0229327 0.00483107 -0.011279 -0.00709526 -0.0215765 -0.013053 -0.00467252 -0.0199033 -0.0160314 -0.00230743 -0.0181724 -0.0185515 1.70977e-14 -0.0163839 -0.0206134 0.00224978 -0.0145377 -0.0222171 0.0044419 -0.0126338 -0.0233626 0.00657637 -0.0106723 -0.0240499 0.00865318 -0.00865318 -0.024279 0.0106723 -0.00657637 -0.0240499 0.0126338 -0.0044419 -0.0233626 0.0145377 -0.00224978 -0.0222171 0.0163839 -5.67059e-14 -0.0206134 0.0181724 0.00230743 -0.0185515 0.0199033 0.00467252 -0.0160314 0.0215765 0.00709526 -0.013053 -0.00925855 -0.0201195 -0.0144328 -0.00687905 -0.0183021 -0.0174993 -0.00454279 -0.0164415 -0.0200941 -0.00224978 -0.0145377 -0.0222171 6.01289e-15 -0.0125906 -0.0238683 0.00220654 -0.0106003 -0.0250478 0.00436983 -0.00856669 -0.0257554 0.00648988 -0.00648988 -0.0259913 0.00856669 -0.00436983 -0.0257554 0.0106003 -0.00220654 -0.0250478 0.0125906 -6.35264e-14 -0.0238683 0.0145377 0.00224978 -0.0222171 0.0164415 0.00454279 -0.0200941 0.0183021 0.00687905 -0.0174993 0.0201195 0.00925855 -0.0144328 -0.011321 -0.0185616 -0.0154184 -0.00899911 -0.0166145 -0.0185479 -0.00670609 -0.0146386 -0.021196 -0.0044419 -0.0126338 -0.0233626 -0.00220654 -0.0106003 -0.0250478 -6.62694e-15 -0.00853787 -0.0262515 0.00217771 -0.00644664 -0.0269737 0.00432659 -0.00432659 -0.0272144 0.00644664 -0.00217771 -0.0269737 0.00853787 -7.03478e-14 -0.0262515 0.0106003 0.00220654 -0.0250478 0.0126338 0.0044419 -0.0233626 0.0146386 0.00670609 -0.021196 0.0166145 0.00899911 -0.0185479 0.0185616 0.011321 -0.0154184 -0.0132825 -0.0169028 -0.0160097 -0.0110327 -0.0148404 -0.0191771 -0.00879731 -0.0127636 -0.0218571 -0.00657637 -0.0106723 -0.0240499 -0.00436983 -0.00856669 -0.0257554 -0.00217771 -0.00644664 -0.0269737 -2.08625e-14 -0.00431217 -0.0277046 0.00216329 -0.00216329 -0.0279482 0.00431217 -7.7165e-14 -0.0277046 0.00644664 0.00217771 -0.0269737 0.00856669 0.00436983 -0.0257554 0.0106723 0.00657637 -0.0240499 0.0127636 0.00879731 -0.0218571 0.0148404 0.0110327 -0.0191771 0.0169028 0.0132825 -0.0160097 -0.0151431 -0.0151431 -0.0162068 -0.0129798 -0.0129798 -0.0193868 -0.0108165 -0.0108165 -0.0220775 -0.00865318 -0.00865318 -0.024279 -0.00648988 -0.00648988 -0.0259913 -0.00432659 -0.00432659 -0.0272144 -0.00216329 -0.00216329 -0.0279482 -3.67315e-14 -8.39591e-14 -0.0281929 0.00216329 0.00216329 -0.0279482 0.00432659 0.00432659 -0.0272144 0.00648988 0.00648988 -0.0259913 0.00865318 0.00865318 -0.024279 0.0108165 0.0108165 -0.0220775 0.0129798 0.0129798 -0.0193868 0.0151431 0.0151431 -0.0162068 -0.0169028 -0.0132825 -0.0160097 -0.0148404 -0.0110327 -0.0191771 -0.0127636 -0.00879731 -0.0218571 -0.0106723 -0.00657637 -0.0240499 -0.00856669 -0.00436983 -0.0257554 -0.00644664 -0.00217771 -0.0269737 -0.00431217 -7.83606e-14 -0.0277046 -0.00216329 0.00216329 -0.0279482 -2.52661e-14 0.00431217 -0.0277046 0.00217771 0.00644664 -0.0269737 0.00436983 0.00856669 -0.0257554 0.00657637 0.0106723 -0.0240499 0.00879731 0.0127636 -0.0218571 0.0110327 0.0148404 -0.0191771 0.0132825 0.0169028 -0.0160097 -0.0185616 -0.011321 -0.0154184 -0.0166145 -0.00899911 -0.0185479 -0.0146386 -0.00670609 -0.021196 -0.0126338 -0.0044419 -0.0233626 -0.0106003 -0.00220654 -0.0250478 -0.00853787 -7.21366e-14 -0.0262515 -0.00644664 0.00217771 -0.0269737 -0.00432659 0.00432659 -0.0272144 -0.00217771 0.00644664 -0.0269737 -1.482e-14 0.00853787 -0.0262515 0.00220654 0.0106003 -0.0250478 0.0044419 0.0126338 -0.0233626 0.00670609 0.0146386 -0.021196 0.00899911 0.0166145 -0.0185479 0.011321 0.0185616 -0.0154184 -0.0201195 -0.00925855 -0.0144328 -0.0183021 -0.00687905 -0.0174993 -0.0164415 -0.00454279 -0.0200941 -0.0145377 -0.00224978 -0.0222171 -0.0125906 -6.53313e-14 -0.0238683 -0.0106003 0.00220654 -0.0250478 -0.00856669 0.00436983 -0.0257554 -0.00648988 0.00648988 -0.0259913 -0.00436983 0.00856669 -0.0257554 -0.00220654 0.0106003 -0.0250478 -5.37406e-15 0.0125906 -0.0238683 0.00224978 0.0145377 -0.0222171 0.00454279 0.0164415 -0.0200941 0.00687905 0.0183021 -0.0174993 0.00925855 0.0201195 -0.0144328 -0.0215765 -0.00709526 -0.013053 -0.0199033 -0.00467252 -0.0160314 -0.0181724 -0.00230743 -0.0185515 -0.0163839 -5.79752e-14 -0.0206134 -0.0145377 0.00224978 -0.0222171 -0.0126338 0.0044419 -0.0233626 -0.0106723 0.00657637 -0.0240499 -0.00865318 0.00865318 -0.024279 -0.00657637 0.0106723 -0.0240499 -0.0044419 0.0126338 -0.0233626 -0.00224978 0.0145377 -0.0222171 3.09041e-15 0.0163839 -0.0206134 0.00230743 0.0181724 -0.0185515 0.00467252 0.0199033 -0.0160314 0.00709526 0.0215765 -0.013053 -0.0229327 -0.00483107 -0.011279 -0.021418 -0.0023795 -0.0141439 -0.0198312 -5.00995e-14 -0.0165681 -0.0181724 0.00230743 -0.0185515 -0.0164415 0.00454279 -0.0200941 -0.0146386 0.00670609 -0.021196 -0.0127636 0.00879731 -0.0218571 -0.0108165 0.0108165 -0.0220775 -0.00879731 0.0127636 -0.0218571 -0.00670609 0.0146386 -0.021196 -0.00454279 0.0164415 -0.0200941 -0.00230743 0.0181724 -0.0185515 1.05996e-14 0.0198312 -0.0165681 0.0023795 0.021418 -0.0141439 0.00483107 0.0229327 -0.011279 -0.0241879 -0.00246598 -0.0091108 -0.0228462 -4.17377e-14 -0.0118371 -0.021418 0.0023795 -0.0141439 -0.0199033 0.00467252 -0.0160314 -0.0183021 0.00687905 -0.0174993 -0.0166145 0.00899911 -0.0185479 -0.0148404 0.0110327 -0.0191771 -0.0129798 0.0129798 -0.0193868 -0.0110327 0.0148404 -0.0191771 -0.00899911 0.0166145 -0.0185479 -0.00687905 0.0183021 -0.0174993 -0.00467252 0.0199033 -0.0160314 -0.0023795 0.021418 -0.0141439 1.71738e-14 0.0228462 -0.0118371 0.00246598 0.0241879 -0.0091108 -0.0253422 -3.29277e-14 -0.00654836 -0.0241879 0.00246598 -0.0091108 -0.0229327 0.00483107 -0.011279 -0.0215765 0.00709526 -0.013053 -0.0201195 0.00925855 -0.0144328 -0.0185616 0.011321 -0.0154184 -0.0169028 0.0132825 -0.0160097 -0.0151431 0.0151431 -0.0162068 -0.0132825 0.0169028 -0.0160097 -0.011321 0.0185616 -0.0154184 -0.00925855 0.0201195 -0.0144328 -0.00709526 0.0215765 -0.013053 -0.00483107 0.0229327 -0.011279 -0.00246598 0.0241879 -0.0091108 2.28372e-14 0.0253422 -0.00654836 5.66994e-14 -0.0302124 0.0371293 0.00299651 -0.0288929 0.0370315 0.00586402 -0.0274443 0.0369488 0.00860254 -0.0258668 0.0368812 0.0112121 -0.0241602 0.0368285 0.0136926 -0.0223247 0.036791 0.0160441 -0.0203602 0.0367684 0.0182666 -0.0182666 0.0367609 0.0203602 -0.0160441 0.0367684 0.0223247 -0.0136926 0.036791 0.0241602 -0.0112121 0.0368285 0.0258668 -0.00860254 0.0368812 0.0274443 -0.00586402 0.0369488 0.0288929 -0.00299651 0.0370315 0.0302124 -6.5668e-14 0.0371293 -0.00299651 -0.0288929 0.0370315 4.75372e-14 -0.0273338 0.0368566 0.00288594 -0.0256641 0.0367086 0.00566131 -0.0238838 0.0365875 0.00832612 -0.021993 0.0364933 0.0108804 -0.0199916 0.036426 0.013324 -0.0178797 0.0363856 0.0156571 -0.0156571 0.0363722 0.0178797 -0.013324 0.0363856 0.0199916 -0.0108804 0.036426 0.021993 -0.00832612 0.0364933 0.0238838 -0.00566131 0.0365875 0.0256641 -0.00288594 0.0367086 0.0273338 -7.63751e-14 0.0368566 0.0288929 0.00299651 0.0370315 -0.00586402 -0.0274443 0.0369488 -0.00288594 -0.0256641 0.0367086 3.62557e-14 -0.0237917 0.0365053 0.0027938 -0.0218272 0.0363389 0.00549546 -0.0197705 0.0362096 0.00810498 -0.0176217 0.0361172 0.0106224 -0.0153807 0.0360617 0.0130476 -0.0130476 0.0360432 0.0153807 -0.0106224 0.0360617 0.0176217 -0.00810498 0.0361172 0.0197705 -0.00549546 0.0362096 0.0218272 -0.0027938 0.0363389 0.0237917 -8.70141e-14 0.0365053 0.0256641 0.00288594 0.0367086 0.0274443 0.00586402 0.0369488 -0.00860254 -0.0258668 0.0368812 -0.00566131 -0.0238838 0.0365875 -0.0027938 -0.0218272 0.0363389 2.28332e-14 -0.0196968 0.0361356 0.00272009 -0.0174927 0.0359774 0.00536647 -0.0152148 0.0358645 0.00793913 -0.0128633 0.0357967 0.0104381 -0.0104381 0.0357741 0.0128633 -0.00793913 0.0357967 0.0152148 -0.00536647 0.0358645 0.0174927 -0.00272009 0.0359774 0.0196968 -9.7556e-14 0.0361356 0.0218272 0.0027938 0.0363389 0.0238838 0.00566131 0.0365875 0.0258668 0.00860254 0.0368812 -0.0112121 -0.0241602 0.0368285 -0.00832612 -0.021993 0.0364933 -0.00549546 -0.0197705 0.0362096 -0.00272009 -0.0174927 0.0359774 7.19927e-15 -0.0151596 0.0357969 0.0026648 -0.0127712 0.0356679 0.00527432 -0.0103275 0.0355906 0.00782856 -0.00782856 0.0355648 0.0103275 -0.00527432 0.0355906 0.0127712 -0.0026648 0.0356679 0.0151596 -1.07982e-13 0.0357969 0.0174927 0.00272009 0.0359774 0.0197705 0.00549546 0.0362096 0.021993 0.00832612 0.0364933 0.0241602 0.0112121 0.0368285 -0.0136926 -0.0223247 0.036791 -0.0108804 -0.0199916 0.036426 -0.00810498 -0.0176217 0.0361172 -0.00536647 -0.0152148 0.0358645 -0.0026648 -0.0127712 0.0356679 -1.0683e-14 -0.0102907 0.0355276 0.00262795 -0.00777328 0.0354433 0.00521904 -0.00521904 0.0354153 0.00777328 -0.00262795 0.0354433 0.0102907 -1.18273e-13 0.0355276 0.0127712 0.0026648 0.0356679 0.0152148 0.00536647 0.0358645 0.0176217 0.00810498 0.0361172 0.0199916 0.0108804 0.036426 0.0223247 0.0136926 0.036791 -0.0160441 -0.0203602 0.0367684 -0.013324 -0.0178797 0.0363856 -0.0106224 -0.0153807 0.0360617 -0.00793913 -0.0128633 0.0357967 -0.00527432 -0.0103275 0.0355906 -0.00262795 -0.00777328 0.0354433 -3.08774e-14 -0.00520061 0.035355 0.00260952 -0.00260952 0.0353256 0.00520061 -1.28414e-13 0.035355 0.00777328 0.00262795 0.0354433 0.0103275 0.00527432 0.0355906 0.0128633 0.00793913 0.0357967 0.0153807 0.0106224 0.0360617 0.0178797 0.013324 0.0363856 0.0203602 0.0160441 0.0367684 -0.0182666 -0.0182666 0.0367609 -0.0156571 -0.0156571 0.0363722 -0.0130476 -0.0130476 0.0360432 -0.0104381 -0.0104381 0.0357741 -0.00782856 -0.00782856 0.0355648 -0.00521904 -0.00521904 0.0354153 -0.00260952 -0.00260952 0.0353256 -5.3429e-14 -1.38371e-13 0.0352957 0.00260952 0.00260952 0.0353256 0.00521904 0.00521904 0.0354153 0.00782856 0.00782856 0.0355648 0.0104381 0.0104381 0.0357741 0.0130476 0.0130476 0.0360432 0.0156571 0.0156571 0.0363722 0.0182666 0.0182666 0.0367609 -0.0203602 -0.0160441 0.0367684 -0.0178797 -0.013324 0.0363856 -0.0153807 -0.0106224 0.0360617 -0.0128633 -0.00793913 0.0357967 -0.0103275 -0.00527432 0.0355906 -0.00777328 -0.00262795 0.0354433 -0.00520061 -1.30198e-13 0.035355 -0.00260952 0.00260952 0.0353256 -3.70057e-14 0.00520061 0.035355 0.00262795 0.00777328 0.0354433 0.00527432 0.0103275 0.0355906 0.00793913 0.0128633 0.0357967 0.0106224 0.0153807 0.0360617 0.013324 0.0178797 0.0363856 0.0160441 0.0203602 0.0367684 -0.0223247 -0.0136926 0.036791 -0.0199916 -0.0108804 0.036426 -0.0176217 -0.00810498 0.0361172 -0.0152148 -0.00536647 0.0358645 -0.0127712 -0.0026648 0.0356679 -0.0102907 -1.20889e-13 0.0355276 -0.00777328 0.00262795 0.0354433 -0.00521904 0.00521904 0.0354153 -0.00262795 0.00777328 0.0354433 -2.19728e-14 0.0102907 0.0355276 0.0026648 0.0127712 0.0356679 0.00536647 0.0152148 0.0358645 0.00810498 0.0176217 0.0361172 0.0108804 0.0199916 0.036426 0.0136926 0.0223247 0.036791 -0.0241602 -0.0112121 0.0368285 -0.021993 -0.00832612 0.0364933 -0.0197705 -0.00549546 0.0362096 -0.0174927 -0.00272009 0.0359774 -0.0151596 -1.10503e-13 0.0357969 -0.0127712 0.0026648 0.0356679 -0.0103275 0.00527432 0.0355906 -0.00782856 0.00782856 0.0355648 -0.00527432 0.0103275 0.0355906 -0.0026648 0.0127712 0.0356679 -8.28883e-15 0.0151596 0.0357969 0.00272009 0.0174927 0.0359774 0.00549546 0.0197705 0.0362096 0.00832612 0.021993 0.0364933 0.0112121 0.0241602 0.0368285 -0.0258668 -0.00860254 0.0368812 -0.0238838 -0.00566131 0.0365875 -0.0218272 -0.0027938 0.0363389 -0.0196968 -9.90923e-14 0.0361356 -0.0174927 0.00272009 0.0359774 -0.0152148 0.00536647 0.0358645 -0.0128633 0.00793913 0.0357967 -0.0104381 0.0104381 0.0357741 -0.00793913 0.0128633 0.0357967 -0.00536647 0.0152148 0.0358645 -0.00272009 0.0174927 0.0359774 4.06337e-15 0.0196968 0.0361356 0.0027938 0.0218272 0.0363389 0.00566131 0.0238838 0.0365875 0.00860254 0.0258668 0.0368812 -0.0274443 -0.00586402 0.0369488 -0.0256641 -0.00288594 0.0367086 -0.0237917 -8.67106e-14 0.0365053 -0.0218272 0.0027938 0.0363389 -0.0197705 0.00549546 0.0362096 -0.0176217 0.00810498 0.0361172 -0.0153807 0.0106224 0.0360617 -0.0130476 0.0130476 0.0360432 -0.0106224 0.0153807 0.0360617 -0.00810498 0.0176217 0.0361172 -0.00549546 0.0197705 0.0362096 -0.0027938 0.0218272 0.0363389 1.51229e-14 0.0237917 0.0365053 0.00288594 0.0256641 0.0367086 0.00586402 0.0274443 0.0369488 -0.0288929 -0.00299651 0.0370315 -0.0273338 -7.34119e-14 0.0368566 -0.0256641 0.00288594 0.0367086 -0.0238838 0.00566131 0.0365875 -0.021993 0.00832612 0.0364933 -0.0199916 0.0108804 0.036426 -0.0178797 0.013324 0.0363856 -0.0156571 0.0156571 0.0363722 -0.013324 0.0178797 0.0363856 -0.0108804 0.0199916 0.036426 -0.00832612 0.021993 0.0364933 -0.00566131 0.0238838 0.0365875 -0.00288594 0.0256641 0.0367086 2.49167e-14 0.0273338 0.0368566 0.00299651 0.0288929 0.0370315 -0.0302124 -5.92564e-14 0.0371293 -0.0288929 0.00299651 0.0370315 -0.0274443 0.00586402 0.0369488 -0.0258668 0.00860254 0.0368812 -0.0241602 0.0112121 0.0368285 -0.0223247 0.0136926 0.036791 -0.0203602 0.0160441 0.0367684 -0.0182666 0.0182666 0.0367609 -0.0160441 0.0203602 0.0367684 -0.0136926 0.0223247 0.036791 -0.0112121 0.0241602 0.0368285 -0.00860254 0.0258668 0.0368812 -0.00586402 0.0274443 0.0369488 -0.00299651 0.0288929 0.0370315 3.34767e-14 0.0302124 0.0371293 6.8447e-14 -0.0298821 0.0808069 0.00305873 -0.0286719 0.0831739 0.00597526 -0.0273196 0.0851767 0.00874959 -0.0258251 0.0868154 0.0113817 -0.0241883 0.0880899 0.0138717 -0.0224094 0.0890003 0.0162194 -0.0204883 0.0895465 0.0184249 -0.0184249 0.0897286 0.0204883 -0.0162194 0.0895465 0.0224094 -0.0138717 0.0890003 0.0241883 -0.0113817 0.0880899 0.0258251 -0.00874959 0.0868154 0.0273196 -0.00597526 0.0851767 0.0286719 -0.00305873 0.0831739 0.0298821 -1.02479e-13 0.0808069 -0.00305873 -0.0286719 0.0831739 5.72618e-14 -0.0271977 0.0855503 0.00293684 -0.0256016 0.0875611 0.0057518 -0.0238836 0.0892063 0.00844488 -0.0220437 0.0904859 0.0110161 -0.020082 0.0913999 0.0134654 -0.0179983 0.0919483 0.0157928 -0.0157928 0.0921311 0.0179983 -0.0134654 0.0919483 0.020082 -0.0110161 0.0913999 0.0220437 -0.00844488 0.0904859 0.0238836 -0.0057518 0.0892063 0.0256016 -0.00293684 0.0875611 0.0271977 -1.17485e-13 0.0855503 0.0286719 0.00305873 0.0831739 -0.00597526 -0.0273196 0.0851767 -0.00293684 -0.0256016 0.0875611 4.33661e-14 -0.023782 0.0895786 0.00283527 -0.0218609 0.0912293 0.00556898 -0.0198382 0.0925132 0.00820111 -0.0177139 0.0934303 0.0107317 -0.0154881 0.0939806 0.0131607 -0.0131607 0.094164 0.0154881 -0.0107317 0.0939806 0.0177139 -0.00820111 0.0934303 0.0198382 -0.00556898 0.0925132 0.0218609 -0.00283527 0.0912293 0.023782 -1.32263e-13 0.0895786 0.0256016 0.00293684 0.0875611 0.0273196 0.00597526 0.0851767 -0.00874959 -0.0258251 0.0868154 -0.0057518 -0.0238836 0.0892063 -0.00283527 -0.0218609 0.0912293 2.66915e-14 -0.0197569 0.0928846 0.00275402 -0.0175717 0.094172 0.00542678 -0.0153052 0.0950916 0.00801828 -0.0129575 0.0956433 0.0105285 -0.0105285 0.0958272 0.0129575 -0.00801828 0.0956433 0.0153052 -0.00542678 0.0950916 0.0175717 -0.00275402 0.094172 0.0197569 -1.46742e-13 0.0928846 0.0218609 0.00283527 0.0912293 0.0238836 0.0057518 0.0892063 0.0258251 0.00874959 0.0868154 -0.0113817 -0.0241883 0.0880899 -0.00844488 -0.0220437 0.0904859 -0.00556898 -0.0198382 0.0925132 -0.00275402 -0.0175717 0.094172 7.18008e-15 -0.0152443 0.0954621 0.00269307 -0.0128559 0.0963837 0.00532521 -0.0104066 0.0969366 0.0078964 -0.0078964 0.0971209 0.0104066 -0.00532521 0.0969366 0.0128559 -0.00269307 0.0963837 0.0152443 -1.609e-13 0.0954621 0.0175717 0.00275402 0.094172 0.0198382 0.00556898 0.0925132 0.0220437 0.00844488 0.0904859 0.0241883 0.0113817 0.0880899 -0.0138717 -0.0224094 0.0890003 -0.0110161 -0.020082 0.0913999 -0.00820111 -0.0177139 0.0934303 -0.00542678 -0.0153052 0.0950916 -0.00269307 -0.0128559 0.0963837 -1.52358e-14 -0.010366 0.0973066 0.00265245 -0.00783545 0.0978604 0.00526426 -0.00526426 0.0980449 0.00783545 -0.00265245 0.0978604 0.010366 -1.74698e-13 0.0973066 0.0128559 0.00269307 0.0963837 0.0153052 0.00542678 0.0950916 0.0177139 0.00820111 0.0934303 0.020082 0.0110161 0.0913999 0.0224094 0.0138717 0.0890003 -0.0162194 -0.0204883 0.0895465 -0.0134654 -0.0179983 0.0919483 -0.0107317 -0.0154881 0.0939806 -0.00801828 -0.0129575 0.0956433 -0.00532521 -0.0104066 0.0969366 -0.00265245 -0.00783545 0.0978604 -4.06119e-14 -0.00524395 0.0984146 0.00263213 -0.00263213 0.0985994 0.00524395 -1.88106e-13 0.0984146 0.00783545 0.00265245 0.0978604 0.0104066 0.00532521 0.0969366 0.0129575 0.00801828 0.0956433 0.0154881 0.0107317 0.0939806 0.0179983 0.0134654 0.0919483 0.0204883 0.0162194 0.0895465 -0.0184249 -0.0184249 0.0897286 -0.0157928 -0.0157928 0.0921311 -0.0131607 -0.0131607 0.094164 -0.0105285 -0.0105285 0.0958272 -0.0078964 -0.0078964 0.0971209 -0.00526426 -0.00526426 0.0980449 -0.00263213 -0.00263213 0.0985994 -6.90143e-14 -2.01072e-13 0.0987842 0.00263213 0.00263213 0.0985994 0.00526426 0.00526426 0.0980449 0.0078964 0.0078964 0.0971209 0.0105285 0.0105285 0.0958272 0.0131607 0.0131607 0.094164 0.0157928 0.0157928 0.0921311 0.0184249 0.0184249 0.0897286 -0.0204883 -0.0162194 0.0895465 -0.0179983 -0.0134654 0.0919483 -0.0154881 -0.0107317 0.0939806 -0.0129575 -0.00801828 0.0956433 -0.0104066 -0.00532521 0.0969366 -0.00783545 -0.00265245 0.0978604 -0.00524395 -1.90477e-13 0.0984146 -0.00263213 0.00263213 0.0985994 -4.81481e-14 0.00524395 0.0984146 0.00265245 0.00783545 0.0978604 0.00532521 0.0104066 0.0969366 0.00801828 0.0129575 0.0956433 0.0107317 0.0154881 0.0939806 0.0134654 0.0179983 0.0919483 0.0162194 0.0204883 0.0895465 -0.0224094 -0.0138717 0.0890003 -0.020082 -0.0110161 0.0913999 -0.0177139 -0.00820111 0.0934303 -0.0153052 -0.00542678 0.0950916 -0.0128559 -0.00269307 0.0963837 -0.010366 -1.78092e-13 0.0973066 -0.00783545 0.00265245 0.0978604 -0.00526426 0.00526