<?xml version="1.0"?> 
<VTKFile type="StructuredGrid" version="0.1"> 
<StructuredGrid WholeExtent="0 29 0 29 0 29"> 
<Piece Extent="0 29 0 29 0 29"> 
<PointData>
<DataArray type="Float32" Name="efield" format="ascii" NumberOfComponents="3"> 
-8.71966 0.330862 -51.2443 -8.86711 0.0968082 -49.7509 -9.01456 -0.0869364 -48.2302 -9.162 -0.230083 -46.6818 -9.30945 -0.340133 -45.1053 -9.4569 -0.422976 -43.5001 -9.60435 -0.483297 -41.8657 -9.7518 -0.524873 -40.2016 -9.89925 -0.550779 -38.507 -10.0467 -0.563547 -36.7816 -10.1941 -0.565279 -35.0246 -10.3416 -0.557736 -33.2353 -10.489 -0.542404 -31.4132 -10.6365 -0.520543 -29.5574 -10.7839 -0.493232 -27.6673 -10.858 -0.484693 -25.748 -10.8588 -0.491216 -23.8431 -10.8596 -0.488919 -21.9609 -10.8603 -0.478642 -20.1011 -10.8611 -0.461121 -18.2629 -10.8618 -0.437004 -16.446 -10.8626 -0.406864 -14.6497 -10.8634 -0.371212 -12.8737 -10.8641 -0.330499 -11.1173 -10.8649 -0.285133 -9.38011 -10.8657 -0.235475 -7.66165 -10.8664 -0.181852 -5.96144 -10.8672 -0.124559 -4.27903 -10.8679 -0.0638611 -2.61395 -10.8687 3.68243e-15 -0.965771 -8.39433 0.58407 -52.3993 -8.57207 0.421549 -50.9477 -8.74706 0.297139 -49.4626 -8.91972 0.203709 -47.9435 -9.0904 0.135647 -46.3901 -9.25934 0.0884798 -44.8018 -9.42679 0.0585943 -43.1782 -9.5929 0.0430437 -41.5185 -9.75783 0.0393999 -39.8223 -9.92169 0.0456445 -38.089 -10.0846 0.0600859 -36.3178 -10.2466 0.0812967 -34.5082 -10.4078 0.108063 -32.6593 -10.5683 0.139349 -30.7705 -10.7281 0.174261 -28.8409 -10.8156 0.186614 -26.8758 -10.8308 0.179996 -24.9208 -10.8455 0.180461 -22.9844 -10.8597 0.187287 -21.066 -10.8736 0.199838 -19.1649 -10.887 0.217552 -17.2806 -10.9001 0.239929 -15.4124 -10.9129 0.266525 -13.5598 -10.9254 0.296941 -11.7222 -10.9376 0.330821 -9.89899 -10.9496 0.367845 -8.08957 -10.9613 0.407722 -6.29336 -10.9728 0.450193 -4.50978 -10.9841 0.49502 -2.73825 -10.9951 0.541989 -0.978193 -8.0896 0.857877 -53.4718 -8.28985 0.755047 -52.0588 -8.48562 0.68109 -50.6065 -8.67754 0.630671 -49.1145 -8.86613 0.599534 -47.5824 -9.05178 0.584236 -46.0096 -9.23483 0.581967 -44.3957 -9.41557 0.590409 -42.7401 -9.59421 0.607636 -41.0422 -9.77097 0.632032 -39.3014 -9.94599 0.662234 -37.5169 -10.1194 0.697083 -35.6882 -10.2914 0.735591 -33.8144 -10.462 0.776906 -31.8948 -10.6313 0.820293 -29.9285 -10.7293 0.837642 -27.921 -10.7563 0.832409 -25.9195 -10.7823 0.832744 -23.9326 -10.8075 0.838031 -21.9598 -10.832 0.847724 -20.0003 -10.8557 0.861339 -18.0534 -10.8787 0.878446 -16.1185 -10.9012 0.898659 -14.1948 -10.923 0.921634 -12.2817 -10.9443 0.947059 -10.3785 -10.9651 0.974657 -8.48452 -10.9855 1.00417 -6.599 -11.0053 1.03538 -4.72125 -11.0248 1.06808 -2.85056 -11.0439 1.10207 -0.98621 -7.79906 1.14588 -54.4618 -8.01597 1.09355 -53.0843 -8.22732 1.06296 -51.6622 -8.43381 1.05006 -50.195 -8.63603 1.05159 -48.6823 -8.83446 1.06488 -47.1237 -9.0295 1.08771 -45.5187 -9.22147 1.11827 -43.8666 -9.41065 1.15501 -42.167 -9.59727 1.19665 -40.4191 -9.78154 1.24208 -38.6223 -9.96362 1.29036 -36.7759 -10.1437 1.34069 -34.879 -10.3218 1.39238 -32.9309 -10.4981 1.44483 -30.9306 -10.6043 1.46802 -28.884 -10.6407 1.4653 -26.8395 -10.6758 1.46682 -24.8061 -10.7097 1.47207 -22.783 -10.7425 1.48059 -20.7696 -10.7743 1.49196 -18.765 -10.8052 1.50581 -16.7684 -10.8351 1.52182 -14.7791 -10.8642 1.53968 -12.7964 -10.8926 1.55914 -10.8193 -10.9201 1.57995 -8.84715 -10.947 1.60189 -6.87905 -10.9732 1.62477 -4.9142 -10.9988 1.64842 -2.95172 -11.0238 1.67267 -0.990763 -7.51808 1.44343 -55.3693 -7.74714 1.43431 -54.0243 -7.96995 1.44132 -52.6296 -8.18724 1.46138 -51.185 -8.39962 1.49194 -49.69 -8.6076 1.53094 -48.1443 -8.81158 1.57663 -46.5472 -9.01192 1.62756 -44.8983 -9.20891 1.68252 -43.1969 -9.40281 1.74046 -41.4425 -9.59383 1.8005 -39.6343 -9.78217 1.86189 -37.7715 -9.96798 1.92397 -35.8535 -10.1514 1.98618 -33.8792 -10.3326 2.04802 -31.8477 -10.4448 2.07766 -29.7651 -10.4885 2.07827 -27.6812 -10.5306 2.08199 -25.6052 -10.5712 2.08837 -23.5361 -10.6105 2.09704 -21.4732 -10.6485 2.10763 -19.4157 -10.6852 2.11984 -17.3627 -10.7208 2.1334 -15.3133 -10.7554 2.14804 -13.2666 -10.7889 2.16355 -11.2218 -10.8215 2.17972 -9.17797 -10.8531 2.19637 -7.1341 -10.8838 2.21334 -5.08925 -10.9137 2.23047 -3.04244 -10.9428 2.24763 -0.992656 -7.24324 1.74713 -56.1943 -7.48087 1.77528 -54.8786 -7.71183 1.81513 -53.5089 -7.93684 1.86427 -52.0847 -8.1565 1.92075 -50.6057 -8.3713 1.98292 -49.0714 -8.58165 2.04944 -47.4815 -8.78792 2.11914 -45.8353 -8.99039 2.19107 -44.1323 -9.18933 2.26438 -42.3718 -9.38496 2.33837 -40.5532 -9.57747 2.41244 -38.6755 -9.76704 2.48606 -36.7381 -9.9538 2.55877 -34.74 -10.1379 2.63019 -32.6802 -10.2543 2.66666 -30.5649 -10.3035 2.67119 -28.4452 -10.3508 2.67785 -26.3303 -10.3965 2.68626 -24.2194 -10.4405 2.6961 -22.1117 -10.483 2.70707 -20.0061 -10.524 2.71893 -17.9017 -10.5637 2.73143 -15.7976 -10.602 2.74438 -13.6929 -10.6392 2.75757 -11.5865 -10.6751 2.77085 -9.47746 -10.7099 2.78407 -7.36463 -10.7436 2.79707 -5.24696 -10.7763 2.80975 -3.12333 -10.808 2.822 -0.992573 -6.97197 2.0544 -56.9368 -7.21525 2.11494 -55.6475 -7.45164 2.1836 -54.3 -7.68181 2.25853 -52.8941 -7.90632 2.33819 -51.4294 -8.12564 2.42131 -49.9054 -8.34017 2.50681 -48.3218 -8.55027 2.5938 -46.678 -8.75621 2.6815 -44.9734 -8.95826 2.76925 -43.2074 -9.15662 2.8565 -41.3793 -9.35151 2.94277 -39.4882 -9.54308 3.02763 -37.5333 -9.73148 3.11072 -35.5137 -9.91684 3.19174 -33.4283 -10.0358 3.23524 -31.2836 -10.0889 3.24411 -29.1316 -10.1399 3.25424 -26.9819 -10.189 3.26534 -24.8334 -10.2363 3.27714 -22.6852 -10.2819 3.2894 -20.5363 -10.3258 3.30191 -18.3858 -10.3681 3.31447 -16.2326 -10.4089 3.32693 -14.0756 -10.4483 3.33912 -11.9138 -10.4863 3.35091 -9.746 -10.523 3.36217 -7.57106 -10.5584 3.37281 -5.38778 -10.5925 3.38271 -3.19489 -10.6255 3.39179 -0.991095 -6.70231 2.36327 -57.5968 -6.94883 2.45212 -56.3308 -7.18835 2.54618 -55.0031 -7.42149 2.64403 -53.6134 -7.64877 2.74447 -52.1612 -7.87064 2.84652 -50.6464 -8.08746 2.94935 -49.0683 -8.29957 3.05224 -47.4266 -8.50724 3.15459 -45.7205 -8.7107 3.25588 -43.9495 -8.91019 3.35568 -42.1129 -9.10587 3.45362 -40.2098 -9.29791 3.54935 -38.2393 -9.48646 3.64261 -36.2006 -9.67165 3.73315 -34.0925 -9.79171 3.78377 -31.9216 -9.84735 3.79722 -29.741 -9.90076 3.81119 -27.5602 -9.95206 3.82546 -25.3783 -10.0014 3.8398 -23.1942 -10.0487 3.85403 -21.0069 -10.0943 3.86796 -18.8154 -10.1381 3.88146 -16.6184 -10.1802 3.89438 -14.415 -10.2206 3.9066 -12.2039 -10.2596 3.91802 -9.98394 -10.297 3.92854 -7.75377 -10.3329 3.93807 -5.5121 -10.3675 3.94654 -3.25756 -10.4007 3.95387 -0.988711 -6.43276 2.67226 -58.1742 -6.68044 2.78593 -56.9287 -6.92111 2.90244 -55.6182 -7.15534 3.0207 -54.2425 -7.3836 3.13981 -52.8014 -7.60629 3.25899 -51.2944 -7.82374 3.37761 -49.7212 -8.03627 3.49511 -48.0811 -8.24414 3.61104 -46.3737 -8.44755 3.725 -44.5983 -8.64672 3.83664 -42.7542 -8.84182 3.94569 -40.8405 -9.03301 4.05188 -38.8564 -9.22042 4.15502 -36.801 -9.40417 4.25491 -34.673 -9.52413 4.31263 -32.4792 -9.58112 4.33079 -30.2735 -9.63574 4.34884 -28.0656 -9.68811 4.3666 -25.8544 -9.73832 4.3839 -23.6389 -9.78646 4.4006 -21.418 -9.83262 4.41656 -19.1906 -9.87686 4.43165 -16.9555 -9.91927 4.44578 -14.7114 -9.9599 4.45886 -12.4572 -9.9988 4.47079 -10.1916 -10.036 4.48151 -7.91304 -10.0717 4.49095 -5.62024 -10.1057 4.49906 -3.31169 -10.1382 4.50579 -0.985828 -6.16216 2.9802 -58.6692 -6.40918 3.1157 -57.4411 -6.64926 3.25209 -56.1454 -6.88292 3.38856 -54.7817 -7.11055 3.52442 -53.3499 -7.33253 3.6591 -51.8497 -7.54916 3.7921 -50.2805 -7.76071 3.92302 -48.6419 -7.96741 4.05152 -46.9333 -8.16947 4.17728 -45.1541 -8.36708 4.30006 -43.3035 -8.56039 4.41965 -41.3808 -8.74954 4.53586 -39.385 -8.93467 4.64853 -37.3151 -9.1159 4.75754 -35.17 -9.2347 4.82226 -32.9566 -9.29201 4.84514 -30.7294 -9.34685 4.86739 -28.4982 -9.39933 4.88885 -26.262 -9.44953 4.90941 -24.0196 -9.49754 4.92894 -21.7699 -9.54345 4.94735 -19.5118 -9.58732 4.96455 -17.2439 -9.62921 4.98046 -14.9651 -9.66919 4.99501 -12.6739 -9.70731 5.00815 -10.3691 -9.74363 5.01982 -8.04912 -9.77819 5.02998 -5.71248 -9.81104 5.03858 -3.35759 -9.84222 5.0456 -0.982784 -5.88963 3.28621 -59.0817 -6.13433 3.44092 -57.8681 -6.37225 3.59493 -56.5846 -6.60382 3.74763 -55.2309 -6.8294 3.89853 -53.8069 -7.04929 4.0472 -52.3122 -7.26378 4.1933 -50.7464 -7.47308 4.33651 -49.1089 -7.67741 4.4766 -47.3993 -7.87696 4.61334 -45.6169 -8.07188 4.74656 -43.761 -8.26233 4.87611 -41.8306 -8.44843 5.00186 -39.825 -8.63029 5.1237 -37.7432 -8.80803 5.24154 -35.5839 -8.92474 5.31309 -33.3541 -8.98149 5.34064 -31.109 -9.0357 5.3671 -28.8584 -9.08747 5.39237 -26.6013 -9.13689 5.41635 -24.3366 -9.18403 5.43895 -22.0629 -9.22896 5.46012 -19.7791 -9.27176 5.47979 -17.484 -9.31247 5.49791 -15.1762 -9.35117 5.51442 -12.8542 -9.38789 5.5293 -10.5168 -9.4227 5.5425 -8.16223 -9.45563 5.554 -5.78904 -9.48672 5.56377 -3.3955 -9.51603 5.5718 -0.979857 -5.61448 3.5896 -59.4117 -5.85533 3.76123 -58.2097 -6.08963 3.93083 -56.9359 -6.31773 4.09799 -55.5903 -6.53992 4.26236 -54.1724 -6.75647 4.42366 -52.6821 -6.9676 4.58163 -51.119 -7.17351 4.73607 -49.4824 -7.37438 4.88682 -47.772 -7.57036 5.03374 -45.987 -7.7616 5.17671 -44.1267 -7.94822 5.31563 -42.1903 -8.13035 5.45042 -40.1769 -8.30807 5.58101 -38.0854 -8.48149 5.70736 -35.9148 -8.59531 5.78551 -33.6718 -8.65073 5.8176 -31.4124 -8.70358 5.84823 -29.1464 -8.75396 5.87731 -26.8726 -8.80194 5.90479 -24.5899 -8.84758 5.93062 -22.297 -8.89096 5.95475 -19.9928 -8.93212 5.97714 -17.6758 -8.97113 5.99776 -15.3448 -9.00803 6.01659 -12.9983 -9.04288 6.0336 -10.6347 -9.07571 6.04877 -8.25253 -9.10657 6.0621 -5.85008 -9.13551 6.07356 -3.4256 -9.16255 6.08316 -0.977265 -5.33621 3.88987 -59.6592 -5.57174 4.07636 -58.4659 -5.80103 4.25974 -57.1994 -6.02433 4.43974 -55.8597 -6.24189 4.61614 -54.4465 -6.45391 4.78877 -52.9595 -6.66057 4.95748 -51.3983 -6.86202 5.12214 -49.7625 -7.05842 5.28267 -48.0514 -7.24988 5.43897 -46.2645 -7.43653 5.591 -44.4009 -7.61847 5.73868 -42.46 -7.7958 5.882 -40.4407 -7.9686 6.02091 -38.342 -8.13697 6.15541 -36.1628 -8.2472 6.23987 -33.91 -8.30063 6.27632 -31.6398 -8.35151 6.31099 -29.3622 -8.39992 6.34383 -27.0759 -8.44591 6.37482 -24.7797 -8.48955 6.40392 -22.4725 -8.53088 6.43111 -20.1529 -8.56997 6.45638 -17.8196 -8.60685 6.47971 -15.4712 -8.64157 6.5011 -13.1062 -8.67418 6.52052 -10.7231 -8.70471 6.53799 -8.32014 -8.7332 6.5535 -5.89574 -8.75969 6.56706 -3.44806 -8.78422 6.57865 -0.975178 -5.05446 4.18666 -59.8242 -5.28323 4.38617 -58.6367 -5.50614 4.58166 -57.3751 -5.72338 4.773 -56.0393 -5.93511 4.96009 -54.6292 -6.14147 5.14284 -53.1444 -6.34259 5.3212 -51.5846 -6.53858 5.49511 -49.9491 -6.72956 5.66454 -48.2376 -6.91561 5.82946 -46.4494 -7.09683 5.98985 -44.5837 -7.2733 6.1457 -42.6397 -7.44509 6.297 -40.6164 -7.61228 6.44377 -38.5129 -7.77494 6.586 -36.328 -7.88097 6.67647 -34.0687 -7.93185 6.71703 -31.7914 -7.98023 6.75556 -29.506 -8.02618 6.79203 -27.2113 -8.06975 6.82644 -24.9062 -8.11097 6.85879 -22.5894 -8.14989 6.88907 -20.2596 -8.18655 6.91729 -17.9154 -8.22099 6.94343 -15.5554 -8.25326 6.96752 -13.1781 -8.28337 6.98956 -10.7819 -8.31137 7.00955 -8.36517 -8.33729 7.0275 -5.92613 -8.36116 7.04343 -3.46297 -8.38301 7.05735 -0.973719 -4.76901 4.47974 -59.9067 -4.98956 4.69057 -58.722 -5.20474 4.89662 -57.4629 -5.41464 5.09791 -56.1291 -5.61936 5.29442 -54.7206 -5.81895 5.48615 -53.2369 -6.0135 5.67312 -51.6777 -6.20308 5.85533 -50.0425 -6.38773 6.0328 -48.3307 -6.56754 6.20556 -46.5418 -6.74255 6.37361 -44.675 -6.91282 6.537 -42.7295 -7.0784 6.69573 -40.7043 -7.23934 6.84986 -38.5984 -7.3957 6.99939 -36.4107 -7.497 7.09548 -34.1481 -7.54483 7.13986 -31.8672 -7.59028 7.182 -29.5779 -7.63338 7.22191 -27.2791 -7.67415 7.25961 -24.9695 -7.71263 7.29511 -22.6479 -7.74885 7.32842 -20.3129 -7.78284 7.35957 -17.9633 -7.81463 7.38856 -15.5975 -7.84424 7.41542 -13.214 -7.8717 7.44016 -10.8113 -7.89704 7.46281 -8.38766 -7.92029 7.48337 -5.94131 -7.94146 7.50187 -3.47041 -7.9606 7.51833 -0.97297 -4.47974 4.76901 -59.9067 -4.69057 4.98956 -58.722 -4.89662 5.20474 -57.4629 -5.09791 5.41464 -56.1291 -5.29442 5.61936 -54.7206 -5.48615 5.81895 -53.2369 -5.67312 6.0135 -51.6777 -5.85533 6.20308 -50.0425 -6.0328 6.38773 -48.3307 -6.20556 6.56754 -46.5418 -6.37361 6.74255 -44.675 -6.537 6.91282 -42.7295 -6.69573 7.0784 -40.7043 -6.84986 7.23934 -38.5984 -6.99939 7.3957 -36.4107 -7.09548 7.497 -34.1481 -7.13986 7.54483 -31.8672 -7.182 7.59028 -29.5779 -7.22191 7.63338 -27.2791 -7.25961 7.67415 -24.9695 -7.29511 7.71263 -22.6479 -7.32842 7.74885 -20.3129 -7.35957 7.78284 -17.9633 -7.38856 7.81463 -15.5975 -7.41542 7.84424 -13.214 -7.44016 7.8717 -10.8113 -7.46281 7.89704 -8.38766 -7.48337 7.92029 -5.94131 -7.50187 7.94146 -3.47041 -7.51833 7.9606 -0.97297 -4.18666 5.05446 -59.8242 -4.38617 5.28323 -58.6367 -4.58166 5.50614 -57.3751 -4.773 5.72338 -56.0393 -4.96009 5.93511 -54.6292 -5.14284 6.14147 -53.1444 -5.3212 6.34259 -51.5846 -5.49511 6.53858 -49.9491 -5.66454 6.72956 -48.2376 -5.82946 6.91561 -46.4494 -5.98985 7.09683 -44.5837 -6.1457 7.2733 -42.6397 -6.297 7.44509 -40.6164 -6.44377 7.61228 -38.5129 -6.586 7.77494 -36.328 -6.67647 7.88097 -34.0687 -6.71703 7.93185 -31.7914 -6.75556 7.98023 -29.506 -6.79203 8.02618 -27.2113 -6.82644 8.06975 -24.9062 -6.85879 8.11097 -22.5894 -6.88907 8.14989 -20.2596 -6.91729 8.18655 -17.9154 -6.94343 8.22099 -15.5554 -6.96752 8.25326 -13.1781 -6.98956 8.28337 -10.7819 -7.00955 8.31137 -8.36517 -7.0275 8.33729 -5.92613 -7.04343 8.36116 -3.46297 -7.05735 8.38301 -0.973719 -3.88987 5.33621 -59.6592 -4.07636 5.57174 -58.4659 -4.25974 5.80103 -57.1994 -4.43974 6.02433 -55.8597 -4.61614 6.24189 -54.4465 -4.78877 6.45391 -52.9595 -4.95748 6.66057 -51.3983 -5.12214 6.86202 -49.7625 -5.28267 7.05842 -48.0514 -5.43897 7.24988 -46.2645 -5.591 7.43653 -44.4009 -5.73868 7.61847 -42.46 -5.882 7.7958 -40.4407 -6.02091 7.9686 -38.342 -6.15541 8.13697 -36.1628 -6.23987 8.2472 -33.91 -6.27632 8.30063 -31.6398 -6.31099 8.35151 -29.3622 -6.34383 8.39992 -27.0759 -6.37482 8.44591 -24.7797 -6.40392 8.48955 -22.4725 -6.43111 8.53088 -20.1529 -6.45638 8.56997 -17.8196 -6.47971 8.60685 -15.4712 -6.5011 8.64157 -13.1062 -6.52052 8.67418 -10.7231 -6.53799 8.70471 -8.32014 -6.5535 8.7332 -5.89574 -6.56706 8.75969 -3.44806 -6.57865 8.78422 -0.975178 -3.5896 5.61448 -59.4117 -3.76123 5.85533 -58.2097 -3.93083 6.08963 -56.9359 -4.09799 6.31773 -55.5903 -4.26236 6.53992 -54.1724 -4.42366 6.75647 -52.6821 -4.58163 6.9676 -51.119 -4.73607 7.17351 -49.4824 -4.88682 7.37438 -47.772 -5.03374 7.57036 -45.987 -5.17671 7.7616 -44.1267 -5.31563 7.94822 -42.1903 -5.45042 8.13035 -40.1769 -5.58101 8.30807 -38.0854 -5.70736 8.48149 -35.9148 -5.78551 8.59531 -33.6718 -5.8176 8.65073 -31.4124 -5.84823 8.70358 -29.1464 -5.87731 8.75396 -26.8726 -5.90479 8.80194 -24.5899 -5.93062 8.84758 -22.297 -5.95475 8.89096 -19.9928 -5.97714 8.93212 -17.6758 -5.99776 8.97113 -15.3448 -6.01659 9.00803 -12.9983 -6.0336 9.04288 -10.6347 -6.04877 9.07571 -8.25253 -6.0621 9.10657 -5.85008 -6.07356 9.13551 -3.4256 -6.08316 9.16255 -0.977265 -3.28621 5.88963 -59.0817 -3.44092 6.13433 -57.8681 -3.59493 6.37225 -56.5846 -3.74763 6.60382 -55.2309 -3.89853 6.8294 -53.8069 -4.0472 7.04929 -52.3122 -4.1933 7.26378 -50.7464 -4.33651 7.47308 -49.1089 -4.4766 7.67741 -47.3993 -4.61334 7.87696 -45.6169 -4.74656 8.07188 -43.761 -4.87611 8.26233 -41.8306 -5.00186 8.44843 -39.825 -5.1237 8.63029 -37.7432 -5.24154 8.80803 -35.5839 -5.31309 8.92474 -33.3541 -5.34064 8.98149 -31.109 -5.3671 9.0357 -28.8584 -5.39237 9.08747 -26.6013 -5.41635 9.13689 -24.3366 -5.43895 9.18403 -22.0629 -5.46012 9.22896 -19.7791 -5.47979 9.27176 -17.484 -5.49791 9.31247 -15.1762 -5.51442 9.35117 -12.8542 -5.5293 9.38789 -10.5168 -5.5425 9.4227 -8.16223 -5.554 9.45563 -5.78904 -5.56377 9.48672 -3.3955 -5.5718 9.51603 -0.979857 -2.9802 6.16216 -58.6692 -3.1157 6.40918 -57.4411 -3.25209 6.64926 -56.1454 -3.38856 6.88292 -54.7817 -3.52442 7.11055 -53.3499 -3.6591 7.33253 -51.8497 -3.7921 7.54916 -50.2805 -3.92302 7.76071 -48.6419 -4.05152 7.96741 -46.9333 -4.17728 8.16947 -45.1541 -4.30006 8.36708 -43.3035 -4.41965 8.56039 -41.3808 -4.53586 8.74954 -39.385 -4.64853 8.93467 -37.3151 -4.75754 9.1159 -35.17 -4.82226 9.2347 -32.9566 -4.84514 9.29201 -30.7294 -4.86739 9.34685 -28.4982 -4.88885 9.39933 -26.262 -4.90941 9.44953 -24.0196 -4.92894 9.49754 -21.7699 -4.94735 9.54345 -19.5118 -4.96455 9.58732 -17.2439 -4.98046 9.62921 -14.9651 -4.99501 9.66919 -12.6739 -5.00815 9.70731 -10.3691 -5.01982 9.74363 -8.04912 -5.02998 9.77819 -5.71248 -5.03858 9.81104 -3.35759 -5.0456 9.84222 -0.982784 -2.67226 6.43276 -58.1742 -2.78593 6.68044 -56.9287 -2.90244 6.92111 -55.6182 -3.0207 7.15534 -54.2425 -3.13981 7.3836 -52.8014 -3.25899 7.60629 -51.2944 -3.37761 7.82374 -49.7212 -3.49511 8.03627 -48.0811 -3.61104 8.24414 -46.3737 -3.725 8.44755 -44.5983 -3.83664 8.64672 -42.7542 -3.94569 8.84182 -40.8405 -4.05188 9.03301 -38.8564 -4.15502 9.22042 -36.801 -4.25491 9.40417 -34.673 -4.31263 9.52413 -32.4792 -4.33079 9.58112 -30.2735 -4.34884 9.63574 -28.0656 -4.3666 9.68811 -25.8544 -4.3839 9.73832 -23.6389 -4.4006 9.78646 -21.418 -4.41656 9.83262 -19.1906 -4.43165 9.87686 -16.9555 -4.44578 9.91927 -14.7114 -4.45886 9.9599 -12.4572 -4.47079 9.9988 -10.1916 -4.48151 10.036 -7.91304 -4.49095 10.0717 -5.62024 -4.49906 10.1057 -3.31169 -4.50579 10.1382 -0.985828 -2.36327 6.70231 -57.5968 -2.45212 6.94883 -56.3308 -2.54618 7.18835 -55.0031 -2.64403 7.42149 -53.6134 -2.74447 7.64877 -52.1612 -2.84652 7.87064 -50.6464 -2.94935 8.08746 -49.0683 -3.05224 8.29957 -47.4266 -3.15459 8.50724 -45.7205 -3.25588 8.7107 -43.9495 -3.35568 8.91019 -42.1129 -3.45362 9.10587 -40.2098 -3.54935 9.29791 -38.2393 -3.64261 9.48646 -36.2006 -3.73315 9.67165 -34.0925 -3.78377 9.79171 -31.9216 -3.79722 9.84735 -29.741 -3.81119 9.90076 -27.5602 -3.82546 9.95206 -25.3783 -3.8398 10.0014 -23.1942 -3.85403 10.0487 -21.0069 -3.86796 10.0943 -18.8154 -3.88146 10.1381 -16.6184 -3.89438 10.1802 -14.415 -3.9066 10.2206 -12.2039 -3.91802 10.2596 -9.98394 -3.92854 10.297 -7.75377 -3.93807 10.3329 -5.5121 -3.94654 10.3675 -3.25756 -3.95387 10.4007 -0.988711 -2.0544 6.97197 -56.9368 -2.11494 7.21525 -55.6475 -2.1836 7.45164 -54.3 -2.25853 7.68181 -52.8941 -2.33819 7.90632 -51.4294 -2.42131 8.12564 -49.9054 -2.50681 8.34017 -48.3218 -2.5938 8.55027 -46.678 -2.6815 8.75621 -44.9734 -2.76925 8.95826 -43.2074 -2.8565 9.15662 -41.3793 -2.94277 9.35151 -39.4882 -3.02763 9.54308 -37.5333 -3.11072 9.73148 -35.5137 -3.19174 9.91684 -33.4283 -3.23524 10.0358 -31.2836 -3.24411 10.0889 -29.1316 -3.25424 10.1399 -26.9819 -3.26534 10.189 -24.8334 -3.27714 10.2363 -22.6852 -3.2894 10.2819 -20.5363 -3.30191 10.3258 -18.3858 -3.31447 10.3681 -16.2326 -3.32693 10.4089 -14.0756 -3.33912 10.4483 -11.9138 -3.35091 10.4863 -9.746 -3.36217 10.523 -7.57106 -3.37281 10.5584 -5.38778 -3.38271 10.5925 -3.19489 -3.39179 10.6255 -0.991095 -1.74713 7.24324 -56.1943 -1.77528 7.48087 -54.8786 -1.81513 7.71183 -53.5089 -1.86427 7.93684 -52.0847 -1.92075 8.1565 -50.6057 -1.98292 8.3713 -49.0714 -2.04944 8.58165 -47.4815 -2.11914 8.78792 -45.8353 -2.19107 8.99039 -44.1323 -2.26438 9.18933 -42.3718 -2.33837 9.38496 -40.5532 -2.41244 9.57747 -38.6755 -2.48606 9.76704 -36.7381 -2.55877 9.9538 -34.74 -2.63019 10.1379 -32.6802 -2.66666 10.2543 -30.5649 -2.67119 10.3035 -28.4452 -2.67785 10.3508 -26.3303 -2.68626 10.3965 -24.2194 -2.6961 10.4405 -22.1117 -2.70707 10.483 -20.0061 -2.71893 10.524 -17.9017 -2.73143 10.5637 -15.7976 -2.74438 10.602 -13.6929 -2.75757 10.6392 -11.5865 -2.77085 10.6751 -9.47746 -2.78407 10.7099 -7.36463 -2.79707 10.7436 -5.24696 -2.80975 10.7763 -3.12333 -2.822 10.808 -0.992573 -1.44343 7.51808 -55.3693 -1.43431 7.74714 -54.0243 -1.44132 7.96995 -52.6296 -1.46138 8.18724 -51.185 -1.49194 8.39962 -49.69 -1.53094 8.6076 -48.1443 -1.57663 8.81158 -46.5472 -1.62756 9.01192 -44.8983 -1.68252 9.20891 -43.1969 -1.74046 9.40281 -41.4425 -1.8005 9.59383 -39.6343 -1.86189 9.78217 -37.7715 -1.92397 9.96798 -35.8535 -1.98618 10.1514 -33.8792 -2.04802 10.3326 -31.8477 -2.07766 10.4448 -29.7651 -2.07827 10.4885 -27.6812 -2.08199 10.5306 -25.6052 -2.08837 10.5712 -23.5361 -2.09704 10.6105 -21.4732 -2.10763 10.6485 -19.4157 -2.11984 10.6852 -17.3627 -2.1334 10.7208 -15.3133 -2.14804 10.7554 -13.2666 -2.16355 10.7889 -11.2218 -2.17972 10.8215 -9.17797 -2.19637 10.8531 -7.1341 -2.21334 10.8838 -5.08925 -2.23047 10.9137 -3.04244 -2.24763 10.9428 -0.992656 -1.14588 7.79906 -54.4618 -1.09355 8.01597 -53.0843 -1.06296 8.22732 -51.6622 -1.05006 8.43381 -50.195 -1.05159 8.63603 -48.6823 -1.06488 8.83446 -47.1237 -1.08771 9.0295 -45.5187 -1.11827 9.22147 -43.8666 -1.15501 9.41065 -42.167 -1.19665 9.59727 -40.4191 -1.24208 9.78154 -38.6223 -1.29036 9.96362 -36.7759 -1.34069 10.1437 -34.879 -1.39238 10.3218 -32.9309 -1.44483 10.4981 -30.9306 -1.46802 10.6043 -28.884 -1.4653 10.6407 -26.8395 -1.46682 10.6758 -24.8061 -1.47207 10.7097 -22.783 -1.48059 10.7425 -20.7696 -1.49196 10.7743 -18.765 -1.50581 10.8052 -16.7684 -1.52182 10.8351 -14.7791 -1.53968 10.8642 -12.7964 -1.55914 10.8926 -10.8193 -1.57995 10.9201 -8.84715 -1.60189 10.947 -6.87905 -1.62477 10.9732 -4.9142 -1.64842 10.9988 -2.95172 -1.67267 11.0238 -0.990763 -0.857877 8.0896 -53.4718 -0.755047 8.28985 -52.0588 -0.68109 8.48562 -50.6065 -0.630671 8.67754 -49.1145 -0.599534 8.86613 -47.5824 -0.584236 9.05178 -46.0096 -0.581967 9.23483 -44.3957 -0.590409 9.41557 -42.7401 -0.607636 9.59421 -41.0422 -0.632032 9.77097 -39.3014 -0.662234 9.94599 -37.5169 -0.697083 10.1194 -35.6882 -0.735591 10.2914 -33.8144 -0.776906 10.462 -31.8948 -0.820293 10.6313 -29.9285 -0.837642 10.7293 -27.921 -0.832409 10.7563 -25.9195 -0.832744 10.7823 -23.9326 -0.838031 10.8075 -21.9598 -0.847724 10.832 -20.0003 -0.861339 10.8557 -18.0534 -0.878446 10.8787 -16.1185 -0.898659 10.9012 -14.1948 -0.921634 10.923 -12.2817 -0.947059 10.9443 -10.3785 -0.974657 10.9651 -8.48452 -1.00417 10.9855 -6.599 -1.03538 11.0053 -4.72125 -1.06808 11.0248 -2.85056 -1.10207 11.0439 -0.98621 -0.58407 8.39433 -52.3993 -0.421549 8.57207 -50.9477 -0.297139 8.74706 -49.4626 -0.203709 8.91972 -47.9435 -0.135647 9.0904 -46.3901 -0.0884798 9.25934 -44.8018 -0.0585943 9.42679 -43.1782 -0.0430437 9.5929 -41.5185 -0.0393999 9.75783 -39.8223 -0.0456445 9.92169 -38.089 -0.0600859 10.0846 -36.3178 -0.0812967 10.2466 -34.5082 -0.108063 10.4078 -32.6593 -0.139349 10.5683 -30.7705 -0.174261 10.7281 -28.8409 -0.186614 10.8156 -26.8758 -0.179996 10.8308 -24.9208 -0.180461 10.8455 -22.9844 -0.187287 10.8597 -21.066 -0.199838 10.8736 -19.1649 -0.217552 10.887 -17.2806 -0.239929 10.9001 -15.4124 -0.266525 10.9129 -13.5598 -0.296941 10.9254 -11.7222 -0.330821 10.9376 -9.89899 -0.367845 10.9496 -8.08957 -0.407722 10.9613 -6.29336 -0.450193 10.9728 -4.50978 -0.49502 10.9841 -2.73825 -0.541989 10.9951 -0.978193 -0.330862 8.71966 -51.2443 -0.0968082 8.86711 -49.7509 0.0869364 9.01456 -48.2302 0.230083 9.162 -46.6818 0.340133 9.30945 -45.1053 0.422976 9.4569 -43.5001 0.483297 9.60435 -41.8657 0.524873 9.7518 -40.2016 0.550779 9.89925 -38.507 0.563547 10.0467 -36.7816 0.565279 10.1941 -35.0246 0.557736 10.3416 -33.2353 0.542404 10.489 -31.4132 0.520543 10.6365 -29.5574 0.493232 10.7839 -27.6673 0.484693 10.858 -25.748 0.491216 10.8588 -23.8431 0.488919 10.8596 -21.9609 0.478642 10.8603 -20.1011 0.461121 10.8611 -18.2629 0.437004 10.8618 -16.446 0.406864 10.8626 -14.6497 0.371212 10.8634 -12.8737 0.330499 10.8641 -11.1173 0.285133 10.8649 -9.38011 0.235475 10.8657 -7.66165 0.181852 10.8664 -5.96144 0.124559 10.8672 -4.27903 0.0638611 10.8679 -2.61395 -9.32004e-16 10.8687 -0.965771 -7.77155 0.269818 -54.6794 -7.90943 0.052888 -53.0501 -8.04944 -0.115445 -51.396 -8.19161 -0.244651 -49.7163 -8.336 -0.342052 -48.0105 -8.48267 -0.413396 -46.2779 -8.63166 -0.463264 -44.518 -8.78303 -0.495353 -42.73 -8.93684 -0.512679 -40.9133 -9.09315 -0.517733 -39.0672 -9.25202 -0.512591 -37.1909 -9.41351 -0.498995 -35.2836 -9.57769 -0.478425 -33.3447 -9.74462 -0.452144 -31.3733 -9.91438 -0.42124 -29.3685 -9.98611 -0.41871 -27.3326 -9.95956 -0.438671 -25.3084 -9.93555 -0.447912 -23.3071 -9.91403 -0.44745 -21.3281 -9.89495 -0.438179 -19.3707 -9.87828 -0.420892 -17.4345 -9.86397 -0.396293 -15.5189 -9.85199 -0.365013 -13.6234 -9.84231 -0.327614 -11.7473 -9.83487 -0.284604 -9.89037 -9.82966 -0.236441 -8.05192 -9.82664 -0.183538 -6.23149 -9.82577 -0.126274 -4.42861 -9.82703 -0.0649896 -2.64277 -9.83039 2.06751e-15 -0.873509 -7.47107 0.486698 -55.8974 -7.63711 0.336797 -54.3141 -7.80247 0.223972 -52.699 -7.96763 0.141237 -51.0516 -8.13297 0.0830932 -49.3713 -8.29882 0.0451507 -47.6574 -8.46547 0.0238629 -45.9094 -8.63316 0.0163311 -44.1265 -8.80209 0.0201616 -42.3081 -8.97247 0.0333595 -40.4534 -9.14446 0.0542471 -38.5617 -9.31822 0.0814026 -36.6322 -9.49392 0.113611 -34.6641 -9.67168 0.149829 -32.6565 -9.85165 0.18915 -30.6086 -9.93563 0.195939 -28.5229 -9.92347 0.175773 -26.4447 -9.91342 0.164652 -24.385 -9.90552 0.161687 -22.3432 -9.89976 0.166088 -20.3186 -9.89616 0.177155 -18.3107 -9.89472 0.19426 -16.3188 -9.89544 0.216839 -14.3423 -9.89833 0.244385 -12.3805 -9.90338 0.276441 -10.433 -9.9106 0.312589 -8.49893 -9.91998 0.352453 -6.57785 -9.93152 0.395685 -4.66911 -9.94522 0.44197 -2.77209 -9.96108 0.491016 -0.886196 -7.19123 0.724216 -57.0284 -7.37823 0.630203 -55.4877 -7.56273 0.564518 -53.9089 -7.74541 0.521918 -52.2914 -7.92686 0.498216 -50.6347 -8.10754 0.490026 -48.938 -8.28788 0.494578 -47.2009 -8.46822 0.509587 -45.4226 -8.64888 0.533147 -43.6025 -8.83013 0.563657 -41.7397 -9.01222 0.59976 -39.8336 -9.19537 0.640301 -37.8833 -9.3798 0.684285 -35.8879 -9.5657 0.730853 -33.8467 -9.75326 0.779258 -31.7585 -9.84688 0.791297 -29.6266 -9.8465 0.772243 -27.498 -9.84789 0.760786 -25.384 -9.85113 0.756152 -23.2838 -9.85625 0.757651 -21.1967 -9.86331 0.764667 -19.1222 -9.87234 0.776643 -17.0593 -9.88339 0.793082 -15.0075 -9.89647 0.813532 -12.9661 -9.91162 0.837581 -10.9343 -9.92887 0.864858 -8.9114 -9.94823 0.895021 -6.89673 -9.96975 0.927757 -4.88955 -9.99343 0.96278 -2.88912 -10.0193 0.999824 -0.894716 -6.92576 0.976113 -58.0725 -7.12833 0.92935 -56.5711 -7.32718 0.904138 -55.0257 -7.52311 0.896494 -53.4357 -7.71677 0.9032 -51.8007 -7.90874 0.921624 -50.1199 -8.09948 0.949593 -48.3927 -8.28943 0.9853 -46.6186 -8.47894 1.02723 -44.7967 -8.66834 1.07409 -42.9264 -8.85793 1.1248 -41.0068 -9.04798 1.17842 -39.0372 -9.23873 1.23414 -37.0166 -9.43043 1.29125 -34.9441 -9.62328 1.34916 -32.8188 -9.72424 1.36715 -30.6441 -9.73336 1.3502 -28.4689 -9.74396 1.3396 -26.3046 -9.75615 1.33468 -24.1505 -9.76999 1.33485 -22.0056 -9.78557 1.33955 -19.8694 -9.80295 1.34832 -17.7411 -9.82218 1.3607 -15.6197 -9.84334 1.37631 -13.5046 -9.86646 1.39478 -11.395 -9.8916 1.41577 -9.29003 -9.9188 1.43899 -7.18888 -9.9481 1.46416 -5.09071 -9.97955 1.49102 -2.99469 -10.0132 1.51933 -0.899937 -6.67014 1.23786 -59.0295 -6.88411 1.23148 -57.5642 -7.09354 1.24133 -56.0494 -7.29927 1.26433 -54.4846 -7.502 1.29802 -52.8693 -7.70232 1.34033 -51.203 -7.90074 1.38956 -49.4849 -8.09771 1.44428 -47.7144 -8.29363 1.50328 -45.8909 -8.48886 1.56555 -44.0136 -8.68373 1.63021 -42.0816 -8.87852 1.6965 -40.0942 -9.07352 1.76377 -38.0503 -9.26897 1.83148 -35.9492 -9.46513 1.89911 -33.7897 -9.57142 1.92352 -31.5757 -9.58803 1.9094 -29.3577 -9.60588 1.90057 -27.1473 -9.62508 1.89644 -24.9436 -9.64574 1.8965 -22.7458 -9.66795 1.90029 -20.553 -9.6918 1.90738 -18.3645 -9.71737 1.91739 -16.1794 -9.74472 1.92999 -13.9968 -9.77393 1.94484 -11.8157 -9.80507 1.96167 -9.63543 -9.83819 1.98021 -7.45492 -9.87337 2.00021 -5.27326 -9.91065 2.02145 -3.08948 -9.95009 2.04373 -0.902603 -6.42102 1.50609 -59.8995 -6.64307 1.53455 -58.4669 -6.86005 1.57497 -56.9799 -7.07278 1.625 -55.438 -7.28196 1.68271 -53.8407 -7.48818 1.74652 -52.1874 -7.69197 1.81507 -50.4775 -7.89379 1.88726 -48.7103 -8.09405 1.96213 -46.8852 -8.29312 2.03886 -45.0014 -8.49134 2.11678 -43.0581 -8.68902 2.19528 -41.0544 -8.88645 2.27385 -38.9894 -9.0839 2.35204 -36.8621 -9.28163 2.42947 -34.6714 -9.39151 2.4606 -32.4216 -9.41386 2.44983 -30.1647 -9.43724 2.44343 -27.9123 -9.46178 2.4409 -25.6636 -9.48759 2.44182 -23.4175 -9.51479 2.44578 -21.1734 -9.54347 2.45242 -18.9302 -9.57372 2.46141 -16.687 -9.60564 2.47246 -14.4429 -9.6393 2.4853 -12.1969 -9.67478 2.49968 -9.94812 -9.71217 2.51538 -7.6954 -9.75152 2.53217 -5.43776 -9.79292 2.54988 -3.17411 -9.83643 2.56832 -0.903348 -6.17587 1.7783 -60.6825 -6.40332 1.837 -59.2794 -6.62534 1.90423 -57.8173 -6.84274 1.97818 -56.296 -7.05617 2.05736 -54.7148 -7.26623 2.14055 -53.0732 -7.47343 2.2267 -51.3706 -7.67822 2.31493 -49.6063 -7.88103 2.40451 -47.7798 -8.08222 2.49481 -45.8901 -8.28214 2.58529 -43.9365 -8.48111 2.67549 -41.918 -8.67941 2.76501 -39.8339 -8.87733 2.85352 -37.683 -9.07514 2.9407 -35.4643 -9.18709 2.9787 -33.1823 -9.21366 2.97162 -30.8903 -9.24108 2.96813 -28.6001 -9.26949 2.96782 -26.3107 -9.29901 2.97032 -24.0212 -9.32977 2.9753 -21.7308 -9.36186 2.98244 -19.4383 -9.39538 2.99148 -17.1429 -9.43045 3.00216 -14.8435 -9.46713 3.01427 -12.539 -9.50553 3.02758 -10.2285 -9.54573 3.04191 -7.91076 -9.58781 3.05708 -5.58468 -9.63184 3.07293 -3.24907 -9.67792 3.08931 -0.902711 -5.93277 2.05256 -61.3785 -6.16337 2.13766 -60.0015 -6.38834 2.22849 -58.5617 -6.60841 2.32368 -57.0585 -6.82423 2.42209 -55.4916 -7.03635 2.52278 -53.8604 -7.24527 2.62494 -52.1643 -7.45143 2.72792 -50.4026 -7.65524 2.83114 -48.5746 -7.85707 2.93413 -46.6797 -8.05726 3.03648 -44.7169 -8.25611 3.13785 -42.6853 -8.45394 3.23794 -40.5841 -8.65101 3.3365 -38.4123 -8.84759 3.43332 -36.1686 -8.96031 3.47821 -33.8578 -8.98978 3.47503 -31.5346 -9.01995 3.47478 -29.2108 -9.05097 3.47713 -26.8853 -9.08296 3.48175 -24.5572 -9.11604 3.48838 -22.2255 -9.15031 3.49677 -19.8893 -9.1859 3.50669 -17.5474 -9.22289 3.51793 -15.1988 -9.26138 3.5303 -12.8424 -9.30147 3.54364 -10.477 -9.34324 3.55779 -8.10138 -9.38679 3.5726 -5.71442 -9.4322 3.58794 -3.31478 -9.47955 3.6037 -0.901147 -5.69024 2.3274 -61.9875 -5.92207 2.43563 -60.6334 -6.14816 2.54731 -59.213 -6.3692 2.6614 -57.7258 -6.58577 2.77705 -56.1713 -6.79841 2.89354 -54.5491 -7.00758 