<?xml version="1.0"?> 
<VTKFile type="StructuredGrid" version="0.1"> 
<StructuredGrid WholeExtent="0 29 0 29 0 29"> 
<Piece Extent="0 29 0 29 0 29"> 
<PointData>
<DataArray type="Float32" Name="efield" format="ascii" NumberOfComponents="3"> 
2.49438 21.8315 -1.77269 2.09545 22.2424 -0.72167 1.71779 22.6534 0.139757 1.35644 23.0643 0.815001 1.00747 23.4752 1.30649 0.66771 23.8862 1.61568 0.334587 24.2971 1.74308 0.00598545 24.708 1.68818 -0.319847 25.1189 1.44947 -0.644376 25.5299 1.02439 -0.968836 25.9408 0.40926 -1.29428 26.3517 -0.40082 -1.62159 26.7627 -1.41203 -1.95155 27.1736 -2.632 -2.28482 27.5845 -4.0699 -2.1964 29.276 -5.41282 -1.71498 32.2481 -6.04896 -1.27745 35.2202 -6.06133 -0.885825 38.1923 -5.40215 -0.541873 41.1644 -4.01591 -0.247166 44.1364 -1.83801 -0.00310094 47.1085 1.20685 0.189072 50.0806 5.20675 0.328233 53.0527 10.2651 0.413378 56.0248 16.5037 0.4436 58.9968 24.0673 0.418081 61.9689 33.1281 0.33608 64.941 43.8931 0.196924 67.9131 56.613 9.75143e-15 70.8852 71.5937 3.06987 21.0734 -2.01686 2.76718 21.4849 -0.893979 2.47709 21.8944 0.0298773 2.19638 22.3023 0.758614 1.92245 22.7087 1.29508 1.65316 23.1136 1.64107 1.38677 23.5173 1.79733 1.12182 23.9198 1.76356 0.857102 24.3211 1.53833 0.591579 24.7214 1.11911 0.324384 25.1207 0.50213 0.0547741 25.519 -0.317662 -0.217889 25.9165 -1.34672 -0.494154 26.313 -2.59305 -0.774498 26.7087 -4.06637 -0.576969 28.4139 -5.44794 0.0649774 31.4251 -6.12097 0.656584 34.4311 -6.17369 1.19646 37.432 -5.55887 1.68339 40.4277 -4.22139 2.11629 43.4184 -2.09688 2.49421 46.4042 0.890056 2.81634 49.385 4.82795 3.08192 52.361 9.82121 3.29031 55.3323 15.9936 3.44093 58.2987 23.4925 3.53327 61.2605 32.4948 3.56687 64.2176 43.2141 3.54135 67.1701 55.9107 3.45635 70.1179 70.9047 3.70033 20.3703 -2.2436 3.47637 20.776 -1.05376 3.25918 21.1788 -0.0717884 3.04661 21.5788 0.706716 2.83691 21.9764 1.28502 2.62864 22.3716 1.66525 2.42059 22.7646 1.84844 2.21177 23.1555 1.83445 2.00133 23.5445 1.622 1.78855 23.9316 1.20858 1.57281 24.317 0.590377 1.35361 24.7006 -0.237784 1.13049 25.0826 -1.28259 0.903064 25.463 -2.55239 0.670996 25.8418 -4.05735 0.972643 27.5494 -5.47428 1.77091 30.5793 -6.18232 2.51397 33.5991 -6.27392 3.20092 36.6089 -5.70249 3.83098 39.6088 -4.41347 4.40347 42.5989 -2.34288 4.91783 45.5795 0.584524 5.37355 48.5505 4.45746 5.77023 51.512 9.38101 6.1075 54.4641 15.4803 6.38507 57.4069 22.9051 6.6027 60.3405 31.836 6.76018 63.2648 42.4927 6.85736 66.1801 55.144 6.8941 69.0862 70.1233 4.36798 19.7043 -2.45289 4.20978 20.1005 -1.20106 4.05431 20.4929 -0.165331 3.90014 20.882 0.659182 3.74609 21.2679 1.27615 3.59116 21.6508 1.68805 3.43454 22.0308 1.89617 3.27554 22.4081 1.90058 3.11358 22.7828 1.70012 2.94815 23.155 1.29234 2.77883 23.5248 0.673424 2.60526 23.8923 -0.161923 2.42715 24.2575 -1.22058 2.24421 24.6205 -2.51117 2.05622 24.9813 -4.04429 2.4571 26.6821 -5.49333 3.40705 29.7131 -6.23415 4.29821 32.7295 -6.36259 5.13008 35.7313 -5.8328 5.90221 38.7188 -4.59086 6.61426 41.692 -2.5733 7.26595 44.6511 0.294766 7.85709 47.5962 4.10203 8.3875 50.5275 8.95396 8.85708 53.4449 14.9767 9.26578 56.3486 22.3218 9.61356 59.2386 31.1733 9.90043 62.1151 41.7558 10.1264 64.9781 54.3461 10.2917 67.8277 69.2897 5.06026 19.063 -2.64474 4.95788 19.4471 -1.33593 4.85542 19.827 -0.250831 4.75192 20.203 0.61591 4.64657 20.5753 1.26836 4.53869 20.9442 1.70932 4.42774 21.3096 1.94035 4.31324 21.6719 1.96173 4.19479 22.031 1.77242 4.07205 22.3871 1.37005 3.94475 22.7403 0.750797 3.81262 23.0906 -0.0906937 3.67548 23.4381 -1.16146 3.53315 23.7829 -2.4704 3.38548 24.125 -4.02845 3.88086 25.8109 -5.50642 4.97758 28.8282 -6.27754 6.01301 31.8266 -6.44038 6.98692 34.8061 -5.94986 7.89917 37.7669 -4.75278 8.74966 40.7091 -2.78629 9.53836 43.633 0.024073 10.2653 46.5386 3.76677 10.9305 49.426 8.54742 11.5341 52.2954 14.4928 12.0762 55.1468 21.7562 12.557 57.9804 30.5241 12.9766 60.7962 41.0255 13.3353 63.5943 53.5445 13.6332 66.3747 68.4376 5.76804 18.4372 -2.81915 5.71372 18.8075 -1.45841 5.65735 19.1734 -0.328356 5.59827 19.5351 0.576812 5.53593 19.8926 1.26154 5.46988 20.2463 1.72895 5.39976 20.5961 1.98084 5.32523 20.9423 2.01771 5.24605 21.285 1.83866 5.16197 21.6242 1.44139 5.07283 21.9599 0.822107 4.97846 22.2924 -0.0246097 4.87874 22.6216 -1.10593 4.77356 22.9477 -2.43094 4.66284 23.2705 -4.01093 5.2482 24.935 -5.51475 6.48666 27.926 -6.31352 7.6622 30.8937 -6.50804 8.7748 33.8385 -6.05399 9.82456 36.7605 -4.89892 10.8116 39.6598 -2.98063 11.736 42.5366 -0.225209 12.598 45.391 3.45548 13.3979 48.2232 8.16703 14.1359 51.0332 14.0367 14.8122 53.8212 21.2188 15.4272 56.5873 29.9022 15.9812 59.3316 40.3198 16.4746 62.0541 52.7618 16.9077 64.755 67.5948 6.48456 17.8201 -2.97612 6.47215 18.1758 -1.56854 6.45627 18.5267 -0.397966 6.4365 18.873 0.541814 6.41247 19.2149 1.2556 6.38388 19.5526 1.74682 6.35049 19.8862 2.01753 6.31209 20.2157 2.06839 6.26851 20.5413 1.89867 6.21961 20.863 1.50614 6.16529 21.1809 0.887032 6.10545 21.4952 0.0358983 6.04002 21.8057 -1.05453 5.96894 22.1127 -2.39355 5.89217 22.4161 -3.99268 6.56321 24.0535 -5.51939 7.93835 27.007 -6.34306 9.24964 29.9335 -6.56632 10.4973 32.8329 -6.14562 11.6815 35.7056 -5.02922 12.8025 38.5516 -3.15561 13.8607 41.3712 -0.451455 14.8564 44.1645 3.17096 15.7898 46.9317 7.81708 16.6615 49.6728 13.6144 17.4719 52.388 20.7182 18.2212 55.0774 29.3191 18.91 57.7411 39.6532 19.5387 60.3792 52.0165 20.1078 62.9919 66.7843 7.20474 17.2067 -3.11565 7.22926 17.547 -1.66635 7.24933 17.8822 -0.459716 7.26466 18.2127 0.510853 7.27502 18.5385 1.25048 7.28022 18.8597 1.76288 7.28009 19.1764 2.05032 7.27452 19.4888 2.11366 7.26341 19.797 1.9523 7.24668 20.1009 1.56409 7.22427 20.4007 0.945306 7.19614 20.6964 0.0904698 7.16225 20.9881 -1.00777 7.1226 21.2758 -2.35885 7.07716 21.5596 -3.97454 7.82982 23.1651 -5.52125 9.3366 26.0718 -6.36704 10.7792 28.9475 -6.61599 12.158 31.7925 -6.22526 13.4733 34.6069 -5.14383 14.7254 37.3909 -3.31085 15.9149 40.1446 -0.653585 17.0422 42.8683 2.91523 18.1076 45.5621 7.50079 19.1117 48.2261 13.2307 20.0549 50.8606 20.2609 20.9377 53.4656 28.7835 21.7608 56.0412 39.0374 22.5245 58.5876 51.3234 23.2294 61.105 66.0248 7.92472 16.5931 -3.23773 7.98214 16.9175 -1.75187 8.03441 17.2367 -0.513649 8.08135 17.5509 0.483873 8.12282 17.8601 1.24612 8.1587 18.1645 1.77705 8.18891 18.4641 2.07914 8.21337 18.7591 2.15343 8.23204 19.0495 1.99943 8.24488 19.3354 1.61509 8.25187 19.6169 0.996711 8.253 19.8939 0.138805 8.24827 20.1667 -0.966043 8.2377 20.4351 -2.3274 8.22128 20.6992 -3.95721 9.05175 22.2686 -5.52116 10.6852 25.1202 -6.38626 12.2547 27.9371 -6.65774 13.7607 30.7196 -6.29345 15.2035 33.4679 -5.24302 16.5836 36.1822 -3.44623 17.9017 38.8626 -0.830924 19.158 41.5095 2.6897 20.3532 44.1229 7.22055 21.4878 46.703 12.8893 22.5622 49.25 19.8522 23.5772 51.7641 28.3026 24.5332 54.2454 38.4819 25.4309 56.6941 50.6949 26.2707 59.1104 65.3318 8.64156 15.9763 -3.34238 8.72856 16.2845 -1.82513 8.80994 16.5874 -0.559806 8.88559 16.8849 0.46083 8.95542 17.1773 1.24247 9.01938 17.4646 1.78928 9.07743 17.7469 2.10394 9.12953 18.0242 2.18764 9.17568 18.2968 2.03998 9.21587 18.5645 1.65902 9.2501 18.8275 1.04107 9.2784 19.0858 0.180655 9.30078 19.3395 -0.929691 9.31726 19.5886 -2.29963 9.32788 19.8331 -3.9413 10.2326 21.3627 -5.51982 11.9879 24.1519 -6.40141 13.6798 26.9028 -6.69224 15.3089 29.6159 -6.35074 16.8757 32.2913 -5.32714 18.3805 34.9292 -3.5618 19.824 37.53 -0.983086 21.2068 40.0937 2.49533 22.5293 42.6206 6.97808 23.7921 45.111 12.5927 24.9959 47.565 19.4959 26.1411 49.9828 27.882 27.2284 52.3646 37.9941 28.2584 54.7106 50.1406 29.2317 57.021 64.7176 9.353 15.3542 -3.42958 9.46687 15.6459 -1.88615 9.57479 15.932 -0.598221 9.67672 16.2127 0.441684 9.77262 16.4879 1.23948 9.86247 16.7579 1.79953 9.94626 17.0226 2.12467 10.024 17.2822 2.21621 10.0957 17.5366 2.07388 10.1613 17.786 1.69576 10.221 18.0305 1.07824 10.2746 18.27 0.215819 10.3223 18.5046 -0.898994 10.3642 18.7343 -2.27595 10.4001 18.9593 -3.92729 11.3757 20.4458 -5.51781 13.2481 23.166 -6.41311 15.0582 25.8447 -6.72006 16.8064 28.4822 -6.39763 18.4933 31.0787 -5.39654 20.1195 33.6345 -3.65768 21.6854 36.1499 -1.10988 23.1917 38.6251 2.33278 24.6388 41.0604 6.77464 26.0275 43.456 12.3431 27.3582 45.8121 19.1952 28.6316 48.1291 27.5258 29.8483 50.407 37.5798 31.0088 52.6463 49.6682 32.1139 54.847 64.1922 10.0573 14.7249 -3.49935 10.1958 14.9998 -1.93494 10.3282 15.2689 -0.62892 10.4544 15.5324 0.426403 10.5744 15.7903 1.23713 10.6883 16.0427 1.80777 10.7961 16.2896 2.1413 10.8978 16.5311 2.23912 10.9933 16.7673 2.10105 11.0829 16.9983 1.72524 11.1664 17.224 1.1081 11.2439 17.4446 0.244135 11.3155 17.6601 -0.874177 11.3812 17.8705 -2.25664 11.441 18.0758 -3.91561 12.4843 19.5162 -5.51564 14.4692 22.1616 -6.42185 16.3931 24.7624 -6.74171 18.2565 27.3187 -6.43456 20.0599 29.831 -5.45159 21.8039 32.2995 -3.73407 23.4891 34.7246 -1.21126 25.1159 37.1066 2.20243 26.685 39.4457 6.61107 28.1969 41.7422 12.142 29.6522 43.9964 18.9523 31.0515 46.2086 27.2374 32.3954 48.3791 37.2435 33.6844 50.5081 49.2838 34.9193 52.596 63.7633 10.7533 14.0873 -3.55167 10.9146 14.345 -1.97152 11.0696 14.5968 -0.651925 11.2184 14.8427 0.414965 11.3611 15.0829 1.23538 11.4975 15.3173 1.81397 11.6278 15.5462 2.15379 11.7519 15.7694 2.25633 11.87 15.9872 2.12147 11.9821 16.1994 1.74741 12.0882 16.4063 1.13057 12.1883 16.6078 0.265477 12.2825 16.804 -0.855415 12.3709 16.995 -2.24196 12.4535 17.1807 -3.90658 13.5615 18.5722 -5.51367 15.6544 21.1374 -6.42805 17.6879 23.655 -6.75758 19.6625 26.1252 -6.46192 21.5787 28.5484 -5.49258 23.4371 30.9251 -3.79116 25.2382 33.2555 -1.28723 26.9825 35.5399 2.10453 28.6707 37.7788 6.48797 30.3032 39.9724 11.9903 31.8806 42.1211 18.7688 33.4035 44.2253 27.0192 34.8724 46.2851 36.9885 36.2879 48.301 48.9917 37.6506 50.2733 63.4368 11.44 13.4404 -3.58655 11.6226 13.6804 -1.9959 11.7989 13.9144 -0.667253 11.969 14.1423 0.407349 12.1328 14.3644 1.23423 12.2905 14.5806 1.81811 12.4421 14.791 2.16213 12.5876 14.9956 2.26782 12.7271 15.1946 2.1351 12.8606 15.3879 1.76221 12.9882 15.5756 1.14558 13.1099 15.7578 0.279755 13.2258 15.9346 -0.842837 13.3359 16.1059 -2.23207 13.4403 16.2718 -3.90042 14.6102 17.6118 -5.5122 16.8066 20.0918 -6.43202 18.9455 22.5213 -6.76798 21.0273 24.9008 -6.47999 23.0526 27.2306 -5.51976 25.0219 29.5111 -3.82912 26.9357 31.7427 -1.33783 28.7945 33.9259 2.03921 30.5989 36.061 6.40573 32.3493 38.1483 11.8889 34.0463 40.1883 18.6459 35.6904 42.1813 26.8729 37.2821 44.1278 36.8173 38.8219 46.028 48.7953 40.3105 47.8825 63.2169 12.1169 12.7837 -3.60399 12.3195 13.0054 -2.00809 12.5159 13.221 -0.674914 12.7061 13.4304 0.403544 12.8902 13.6338 1.23366 13.0682 13.8312 1.82019 13.2401 14.0227 2.1663 13.406 14.2082 2.27356 13.566 14.388 2.14192 13.7201 14.5619 1.76961 13.8683 14.7302 1.1531 14.0108 14.8928 0.286909 14.1475 15.0497 -0.836527 14.2785 15.2011 -2.2271 14.4039 15.347 -3.89731 15.6332 16.6329 -5.51142 17.9286 19.0229 -6.43395 20.1686 21.3598 -6.77313 22.3537 23.6442 -6.48897 24.4844 25.8764 -5.5333 26.5611 28.0568 -3.84806 28.5842 30.186 -1.36312 30.5544 32.2644 2.00654 32.4721 34.2923 6.36455 34.3376 36.2702 11.838 36.1516 38.1986 18.5842 37.9145 40.0778 26.7994 39.6268 41.9083 36.7313 41.2889 43.6906 48.6966 42.9014 45.4251 63.1062 12.7837 12.1169 -3.60399 13.0054 12.3195 -2.00809 13.221 12.5159 -0.674914 13.4304 12.7061 0.403544 13.6338 12.8902 1.23366 13.8312 13.0682 1.82019 14.0227 13.2401 2.1663 14.2082 13.406 2.27356 14.388 13.566 2.14192 14.5619 13.7201 1.76961 14.7302 13.8683 1.1531 14.8928 14.0108 0.286909 15.0497 14.1475 -0.836527 15.2011 14.2785 -2.2271 15.347 14.4039 -3.89731 16.6329 15.6332 -5.51142 19.0229 17.9286 -6.43395 21.3598 20.1686 -6.77313 23.6442 22.3537 -6.48897 25.8764 24.4844 -5.5333 28.0568 26.5611 -3.84806 30.186 28.5842 -1.36312 32.2644 30.5544 2.00654 34.2923 32.4721 6.36455 36.2702 34.3376 11.838 38.1986 36.1516 18.5842 40.0778 37.9145 26.7994 41.9083 39.6268 36.7313 43.6906 41.2889 48.6966 45.4251 42.9014 63.1062 13.4404 11.44 -3.58655 13.6804 11.6226 -1.9959 13.9144 11.7989 -0.667253 14.1423 11.969 0.407349 14.3644 12.1328 1.23423 14.5806 12.2905 1.81811 14.791 12.4421 2.16213 14.9956 12.5876 2.26782 15.1946 12.7271 2.1351 15.3879 12.8606 1.76221 15.5756 12.9882 1.14558 15.7578 13.1099 0.279755 15.9346 13.2258 -0.842837 16.1059 13.3359 -2.23207 16.2718 13.4403 -3.90042 17.6118 14.6102 -5.5122 20.0918 16.8066 -6.43202 22.5213 18.9455 -6.76798 24.9008 21.0273 -6.47999 27.2306 23.0526 -5.51976 29.5111 25.0219 -3.82912 31.7427 26.9357 -1.33783 33.9259 28.7945 2.03921 36.061 30.5989 6.40573 38.1483 32.3493 11.8889 40.1883 34.0463 18.6459 42.1813 35.6904 26.8729 44.1278 37.2821 36.8173 46.028 38.8219 48.7953 47.8825 40.3105 63.2169 14.0873 10.7533 -3.55167 14.345 10.9146 -1.97152 14.5968 11.0696 -0.651925 14.8427 11.2184 0.414965 15.0829 11.3611 1.23538 15.3173 11.4975 1.81397 15.5462 11.6278 2.15379 15.7694 11.7519 2.25633 15.9872 11.87 2.12147 16.1994 11.9821 1.74741 16.4063 12.0882 1.13057 16.6078 12.1883 0.265477 16.804 12.2825 -0.855415 16.995 12.3709 -2.24196 17.1807 12.4535 -3.90658 18.5722 13.5615 -5.51367 21.1374 15.6544 -6.42805 23.655 17.6879 -6.75758 26.1252 19.6625 -6.46192 28.5484 21.5787 -5.49258 30.9251 23.4371 -3.79116 33.2555 25.2382 -1.28723 35.5399 26.9825 2.10453 37.7788 28.6707 6.48797 39.9724 30.3032 11.9903 42.1211 31.8806 18.7688 44.2253 33.4035 27.0192 46.2851 34.8724 36.9885 48.301 36.2879 48.9917 50.2733 37.6506 63.4368 14.7249 10.0573 -3.49935 14.9998 10.1958 -1.93494 15.2689 10.3282 -0.62892 15.5324 10.4544 0.426403 15.7903 10.5744 1.23713 16.0427 10.6883 1.80777 16.2896 10.7961 2.1413 16.5311 10.8978 2.23912 16.7673 10.9933 2.10105 16.9983 11.0829 1.72524 17.224 11.1664 1.1081 17.4446 11.2439 0.244135 17.6601 11.3155 -0.874177 17.8705 11.3812 -2.25664 18.0758 11.441 -3.91561 19.5162 12.4843 -5.51564 22.1616 14.4692 -6.42185 24.7624 16.3931 -6.74171 27.3187 18.2565 -6.43456 29.831 20.0599 -5.45159 32.2995 21.8039 -3.73407 34.7246 23.4891 -1.21126 37.1066 25.1159 2.20243 39.4457 26.685 6.61107 41.7422 28.1969 12.142 43.9964 29.6522 18.9523 46.2086 31.0515 27.2374 48.3791 32.3954 37.2435 50.5081 33.6844 49.2838 52.596 34.9193 63.7633 15.3542 9.353 -3.42958 15.6459 9.46687 -1.88615 15.932 9.57479 -0.598221 16.2127 9.67672 0.441684 16.4879 9.77262 1.23948 16.7579 9.86247 1.79953 17.0226 9.94626 2.12467 17.2822 10.024 2.21621 17.5366 10.0957 2.07388 17.786 10.1613 1.69576 18.0305 10.221 1.07824 18.27 10.2746 0.215819 18.5046 10.3223 -0.898994 18.7343 10.3642 -2.27595 18.9593 10.4001 -3.92729 20.4458 11.3757 -5.51781 23.166 13.2481 -6.41311 25.8447 15.0582 -6.72006 28.4822 16.8064 -6.39763 31.0787 18.4933 -5.39654 33.6345 20.1195 -3.65768 36.1499 21.6854 -1.10988 38.6251 23.1917 2.33278 41.0604 24.6388 6.77464 43.456 26.0275 12.3431 45.8121 27.3582 19.1952 48.1291 28.6316 27.5258 50.407 29.8483 37.5798 52.6463 31.0088 49.6682 54.847 32.1139 64.1922 15.9763 8.64156 -3.34238 16.2845 8.72856 -1.82513 16.5874 8.80994 -0.559806 16.8849 8.88559 0.46083 17.1773 8.95542 1.24247 17.4646 9.01938 1.78928 17.7469 9.07743 2.10394 18.0242 9.12953 2.18764 18.2968 9.17568 2.03998 18.5645 9.21587 1.65902 18.8275 9.2501 1.04107 19.0858 9.2784 0.180655 19.3395 9.30078 -0.929691 19.5886 9.31726 -2.29963 19.8331 9.32788 -3.9413 21.3627 10.2326 -5.51982 24.1519 11.9879 -6.40141 26.9028 13.6798 -6.69224 29.6159 15.3089 -6.35074 32.2913 16.8757 -5.32714 34.9292 18.3805 -3.5618 37.53 19.824 -0.983086 40.0937 21.2068 2.49533 42.6206 22.5293 6.97808 45.111 23.7921 12.5927 47.565 24.9959 19.4959 49.9828 26.1411 27.882 52.3646 27.2284 37.9941 54.7106 28.2584 50.1406 57.021 29.2317 64.7176 16.5931 7.92472 -3.23773 16.9175 7.98214 -1.75187 17.2367 8.03441 -0.513649 17.5509 8.08135 0.483873 17.8601 8.12282 1.24612 18.1645 8.1587 1.77705 18.4641 8.18891 2.07914 18.7591 8.21337 2.15343 19.0495 8.23204 1.99943 19.3354 8.24488 1.61509 19.6169 8.25187 0.996711 19.8939 8.253 0.138805 20.1667 8.24827 -0.966043 20.4351 8.2377 -2.3274 20.6992 8.22128 -3.95721 22.2686 9.05175 -5.52116 25.1202 10.6852 -6.38626 27.9371 12.2547 -6.65774 30.7196 13.7607 -6.29345 33.4679 15.2035 -5.24302 36.1822 16.5836 -3.44623 38.8626 17.9017 -0.830924 41.5095 19.158 2.6897 44.1229 20.3532 7.22055 46.703 21.4878 12.8893 49.25 22.5622 19.8522 51.7641 23.5772 28.3026 54.2454 24.5332 38.4819 56.6941 25.4309 50.6949 59.1104 26.2707 65.3318 17.2067 7.20474 -3.11565 17.547 7.22926 -1.66635 17.8822 7.24933 -0.459716 18.2127 7.26466 0.510853 18.5385 7.27502 1.25048 18.8597 7.28022 1.76288 19.1764 7.28009 2.05032 19.4888 7.27452 2.11366 19.797 7.26341 1.9523 20.1009 7.24668 1.56409 20.4007 7.22427 0.945306 20.6964 7.19614 0.0904698 20.9881 7.16225 -1.00777 21.2758 7.1226 -2.35885 21.5596 7.07716 -3.97454 23.1651 7.82982 -5.52125 26.0718 9.3366 -6.36704 28.9475 10.7792 -6.61599 31.7925 12.158 -6.22526 34.6069 13.4733 -5.14383 37.3909 14.7254 -3.31085 40.1446 15.9149 -0.653585 42.8683 17.0422 2.91523 45.5621 18.1076 7.50079 48.2261 19.1117 13.2307 50.8606 20.0549 20.2609 53.4656 20.9377 28.7835 56.0412 21.7608 39.0374 58.5876 22.5245 51.3234 61.105 23.2294 66.0248 17.8201 6.48456 -2.97612 18.1758 6.47215 -1.56854 18.5267 6.45627 -0.397966 18.873 6.4365 0.541814 19.2149 6.41247 1.2556 19.5526 6.38388 1.74682 19.8862 6.35049 2.01753 20.2157 6.31209 2.06839 20.5413 6.26851 1.89867 20.863 6.21961 1.50614 21.1809 6.16529 0.887032 21.4952 6.10545 0.0358983 21.8057 6.04002 -1.05453 22.1127 5.96894 -2.39355 22.4161 5.89217 -3.99268 24.0535 6.56321 -5.51939 27.007 7.93835 -6.34306 29.9335 9.24964 -6.56632 32.8329 10.4973 -6.14562 35.7056 11.6815 -5.02922 38.5516 12.8025 -3.15561 41.3712 13.8607 -0.451455 44.1645 14.8564 3.17096 46.9317 15.7898 7.81708 49.6728 16.6615 13.6144 52.388 17.4719 20.7182 55.0774 18.2212 29.3191 57.7411 18.91 39.6532 60.3792 19.5387 52.0165 62.9919 20.1078 66.7843 18.4372 5.76804 -2.81915 18.8075 5.71372 -1.45841 19.1734 5.65735 -0.328356 19.5351 5.59827 0.576812 19.8926 5.53593 1.26154 20.2463 5.46988 1.72895 20.5961 5.39976 1.98084 20.9423 5.32523 2.01771 21.285 5.24605 1.83866 21.6242 5.16197 1.44139 21.9599 5.07283 0.822107 22.2924 4.97846 -0.0246097 22.6216 4.87874 -1.10593 22.9477 4.77356 -2.43094 23.2705 4.66284 -4.01093 24.935 5.2482 -5.51475 27.926 6.48666 -6.31352 30.8937 7.6622 -6.50804 33.8385 8.7748 -6.05399 36.7605 9.82456 -4.89892 39.6598 10.8116 -2.98063 42.5366 11.736 -0.225209 45.391 12.598 3.45548 48.2232 13.3979 8.16703 51.0332 14.1359 14.0367 53.8212 14.8122 21.2188 56.5873 15.4272 29.9022 59.3316 15.9812 40.3198 62.0541 16.4746 52.7618 64.755 16.9077 67.5948 19.063 5.06026 -2.64474 19.4471 4.95788 -1.33593 19.827 4.85542 -0.250831 20.203 4.75192 0.61591 20.5753 4.64657 1.26836 20.9442 4.53869 1.70932 21.3096 4.42774 1.94035 21.6719 4.31324 1.96173 22.031 4.19479 1.77242 22.3871 4.07205 1.37005 22.7403 3.94475 0.750797 23.0906 3.81262 -0.0906937 23.4381 3.67548 -1.16146 23.7829 3.53315 -2.4704 24.125 3.38548 -4.02845 25.8109 3.88086 -5.50642 28.8282 4.97758 -6.27754 31.8266 6.01301 -6.44038 34.8061 6.98692 -5.94986 37.7669 7.89917 -4.75278 40.7091 8.74966 -2.78629 43.633 9.53836 0.024073 46.5386 10.2653 3.76677 49.426 10.9305 8.54742 52.2954 11.5341 14.4928 55.1468 12.0762 21.7562 57.9804 12.557 30.5241 60.7962 12.9766 41.0255 63.5943 13.3353 53.5445 66.3747 13.6332 68.4376 19.7043 4.36798 -2.45289 20.1005 4.20978 -1.20106 20.4929 4.05431 -0.165331 20.882 3.90014 0.659182 21.2679 3.74609 1.27615 21.6508 3.59116 1.68805 22.0308 3.43454 1.89617 22.4081 3.27554 1.90058 22.7828 3.11358 1.70012 23.155 2.94815 1.29234 23.5248 2.77883 0.673424 23.8923 2.60526 -0.161923 24.2575 2.42715 -1.22058 24.6205 2.24421 -2.51117 24.9813 2.05622 -4.04429 26.6821 2.4571 -5.49333 29.7131 3.40705 -6.23415 32.7295 4.29821 -6.36259 35.7313 5.13008 -5.8328 38.7188 5.90221 -4.59086 41.692 6.61426 -2.5733 44.6511 7.26595 0.294766 47.5962 7.85709 4.10203 50.5275 8.3875 8.95396 53.4449 8.85708 14.9767 56.3486 9.26578 22.3218 59.2386 9.61356 31.1733 62.1151 9.90043 41.7558 64.9781 10.1264 54.3461 67.8277 10.2917 69.2897 20.3703 3.70033 -2.2436 20.776 3.47637 -1.05376 21.1788 3.25918 -0.0717884 21.5788 3.04661 0.706716 21.9764 2.83691 1.28502 22.3716 2.62864 1.66525 22.7646 2.42059 1.84844 23.1555 2.21177 1.83445 23.5445 2.00133 1.622 23.9316 1.78855 1.20858 24.317 1.57281 0.590377 24.7006 1.35361 -0.237784 25.0826 1.13049 -1.28259 25.463 0.903064 -2.55239 25.8418 0.670996 -4.05735 27.5494 0.972643 -5.47428 30.5793 1.77091 -6.18232 33.5991 2.51397 -6.27392 36.6089 3.20092 -5.70249 39.6088 3.83098 -4.41347 42.5989 4.40347 -2.34288 45.5795 4.91783 0.584524 48.5505 5.37355 4.45746 51.512 5.77023 9.38101 54.4641 6.1075 15.4803 57.4069 6.38507 22.9051 60.3405 6.6027 31.836 63.2648 6.76018 42.4927 66.1801 6.85736 55.144 69.0862 6.8941 70.1233 21.0734 3.06987 -2.01686 21.4849 2.76718 -0.893979 21.8944 2.47709 0.0298773 22.3023 2.19638 0.758614 22.7087 1.92245 1.29508 23.1136 1.65316 1.64107 23.5173 1.38677 1.79733 23.9198 1.12182 1.76356 24.3211 0.857102 1.53833 24.7214 0.591579 1.11911 25.1207 0.324384 0.50213 25.519 0.0547741 -0.317662 25.9165 -0.217889 -1.34672 26.313 -0.494154 -2.59305 26.7087 -0.774498 -4.06637 28.4139 -0.576969 -5.44794 31.4251 0.0649774 -6.12097 34.4311 0.656584 -6.17369 37.432 1.19646 -5.55887 40.4277 1.68339 -4.22139 43.4184 2.11629 -2.09688 46.4042 2.49421 0.890056 49.385 2.81634 4.82795 52.361 3.08192 9.82121 55.3323 3.29031 15.9936 58.2987 3.44093 23.4925 61.2605 3.53327 32.4948 64.2176 3.56687 43.2141 67.1701 3.54135 55.9107 70.1179 3.45635 70.9047 21.8315 2.49438 -1.77269 22.2424 2.09545 -0.72167 22.6534 1.71779 0.139757 23.0643 1.35644 0.815001 23.4752 1.00747 1.30649 23.8862 0.66771 1.61568 24.2971 0.334587 1.74308 24.708 0.00598545 1.68818 25.1189 -0.319847 1.44947 25.5299 -0.644376 1.02439 25.9408 -0.968836 0.40926 26.3517 -1.29428 -0.40082 26.7627 -1.62159 -1.41203 27.1736 -1.95155 -2.632 27.5845 -2.28482 -4.0699 29.276 -2.1964 -5.41282 32.2481 -1.71498 -6.04896 35.2202 -1.27745 -6.06133 38.1923 -0.885825 -5.40215 41.1644 -0.541873 -4.01591 44.1364 -0.247166 -1.83801 47.1085 -0.00310094 1.20685 50.0806 0.189072 5.20675 53.0527 0.328233 10.2651 56.0248 0.413378 16.5037 58.9968 0.4436 24.0673 61.9689 0.418081 33.1281 64.941 0.33608 43.8931 67.9131 0.196924 56.613 70.8852 0 71.5937 -1.03191 15.3416 17.7756 -0.865602 16.5322 17.5118 -0.709438 17.7052 17.3392 -0.567001 18.8583 17.2564 -0.441069 19.9893 17.2622 -0.333818 21.0961 17.3561 -0.246964 22.1766 17.5374 -0.181861 23.229 17.806 -0.139582 24.2512 18.162 -0.120965 25.2416 18.6059 -0.126661 26.1981 19.1385 -0.157163 27.119 19.7608 -0.212827 28.0023 20.4745 -0.293895 28.8462 21.2814 -0.400501 29.6485 22.1839 -0.643898 30.0612 23.0468 -0.938682 30.109 23.774 -1.1537 30.1473 24.471 -1.29807 30.1772 25.1382 -1.37985 30.1997 25.7758 -1.40615 30.2155 26.384 -1.38328 30.2258 26.9629 -1.31688 30.2313 27.5125 -1.212 30.233 28.0328 -1.07316 30.2317 28.5236 -0.904452 30.2285 28.9844 -0.709571 30.2242 29.4148 -0.491871 30.2197 29.8142 -0.254413 30.2161 30.1817 6.37091e-14 30.2144 30.5164 -0.727137 14.5171 17.7079 -0.424805 15.735 17.4384 -0.144088 16.9329 17.2575 0.11327 18.1086 17.1639 0.345903 19.26 17.1564 0.552737 20.3851 17.2342 0.732932 21.4821 17.3968 0.885828 22.5489 17.6442 1.01092 23.5839 17.9763 1.10783 24.5852 18.3938 1.17627 25.551 18.8974 1.21607 26.4795 19.4885 1.22711 27.3689 20.1686 1.20936 28.2173 20.9398 1.16284 29.0226 21.8046 0.987873 29.5003 22.6529 0.759101 29.6689 23.3934 0.594095 29.8188 24.1085 0.485272 29.9512 24.7989 0.425922 30.0675 25.4652 0.410086 30.169 26.108 0.432458 30.2566 26.7278 0.488294 30.3314 27.3252 0.573341 30.3945 27.9006 0.683776 30.4466 28.4545 0.816155 30.4887 28.9874 0.967363 30.5216 29.4996 1.13458 30.546 29.9914 1.31524 30.5627 30.4633 1.50701 30.5723 30.9154 -0.355363 13.7597 17.6451 0.0614493 14.994 17.3723 0.449025 16.2068 17.1858 0.80664 17.3959 17.084 1.13373 18.5591 17.0658 1.42987 19.6946 17.1303 1.69473 20.8004 17.2771 1.92808 21.8747 17.5059 2.12975 22.9157 17.817 2.29965 23.9217 18.2108 2.43773 24.8908 18.6884 2.54399 25.8214 19.251 2.61848 26.7116 19.9003 2.66128 27.5595 20.6385 2.67252 28.3633 21.4682 2.56485 28.8934 22.3006 2.40325 29.1635 23.0483 2.291 29.4071 23.7746 2.22185 29.626 24.4805 2.19024 29.8216 25.1668 2.19123 29.9952 25.8345 2.22038 30.1481 26.4847 2.27374 30.2812 27.1184 2.34776 30.3956 27.7367 2.43923 30.4922 28.3407 2.54526 30.5717 28.9316 2.66327 30.6347 29.5108 2.79087 30.6818 30.0794 2.92595 30.7135 30.6391 3.06655 30.7301 31.1914 0.0664006 13.0523 17.5871 0.581177 14.2952 17.313 1.06168 15.5155 17.1229 1.50771 16.7109 17.0151 1.91915 17.8793 16.9885 2.29592 19.0187 17.0421 2.63797 20.1273 17.1755 2.94531 21.2032 17.3884 3.21798 22.2447 17.681 3.45602 23.25 18.0539 3.65953 24.2174 18.5081 3.82861 25.1453 19.0449 3.96339 26.0317 19.6661 4.064 26.8748 20.3741 4.13061 27.6729 21.1715 4.08868 28.2443 21.9872 3.99444 28.5986 22.7377 3.93659 28.9202 23.4699 3.91002 29.211 24.185 3.91016 29.4725 24.8844 3.93293 29.7061 25.5694 3.97469 29.9131 26.2415 4.03215 30.0944 26.9021 4.10236 30.2512 27.5531 4.18268 30.3841 28.1962 4.2707 30.4938 28.8334 4.36425 30.5807 29.4668 4.46137 30.6452 30.0988 4.56025 30.6874 30.7319 4.65929 30.7073 31.3692 0.525758 12.3824 17.5339 1.12551 13.6282 17.2599 1.68771 14.8503 17.0678 2.21243 16.0465 16.9559 2.69974 17.2146 16.9228 3.14971 18.3529 16.9676 3.56244 19.4592 17.0897 3.93806 20.5319 17.2889 4.27667 21.5691 17.5655 4.57843 22.5693 17.92 4.84345 23.5307 18.3534 5.0719 24.4515 18.8671 5.26391 25.3302 19.463 5.41965 26.1648 20.1434 5.53926 26.9536 20.9113 5.56113 27.5563 21.7104 5.53365 27.9792 22.4603 5.53093 28.3645 23.1943 5.54879 28.7141 23.914 5.58354 29.0294 24.6211 5.63187 29.312 25.3172 5.69078 29.563 26.0043 5.75759 29.7835 26.6844 5.82989 29.9744 27.3598 5.90547 30.1363 28.0329 5.98236 30.2698 28.7064 6.05874 30.3751 29.3833 6.13296 30.4522 30.0669 6.20352 30.5011 30.7611 6.26903 30.5214 31.47 1.01349 11.7409 17.4855 1.68776 12.9849 17.2128 2.32247 14.2044 17.0199 2.91773 15.397 16.9052 3.47368 16.5606 16.8672 3.99044 17.6932 16.9049 4.46814 18.7931 17.0177 4.90693 19.8584 17.2054 5.30694 20.8875 17.4681 5.66832 21.8786 17.8065 5.99122 22.8302 18.2215 6.27577 23.7405 18.7147 6.5221 24.6079 19.2879 6.73035 25.4307 19.9436 6.90064 26.207 20.6848 6.98409 26.8322 21.4677 7.02212 27.3098 22.2145 7.07442 27.7459 22.9475 7.13768 28.1422 23.6684 7.20894 28.5005 24.379 7.28554 28.822 25.0816 7.36506 29.108 25.7783 7.44535 29.3594 26.4718 7.52441 29.577 27.1648 7.60047 29.7614 27.8604 7.67186 29.9129 28.562 7.73709 30.0317 29.2734 7.79475 30.1174 29.9989 7.84353 30.1699 30.7433 7.88222 30.1882 31.5122 1.52263 11.1209 17.442 2.26285 12.3595 17.1712 2.96238 13.5726 16.9785 3.62129 14.7579 16.8621 4.23967 15.9132 16.8205 4.81761 17.0368 16.8525 5.35522 18.1266 16.9577 5.8526 19.181 17.1356 6.30987 20.1984 17.3865 6.72714 21.1772 17.711 7.10452 22.1156 18.11 7.4421 23.0123 18.585 7.73998 23.8654 19.1382 7.99822 24.6734 19.7718 8.2169 25.4344 20.489 8.35952 26.074 21.2566 8.4612 26.5937 21.999 8.56777 27.069 22.7289 8.67663 27.5015 23.4484 8.78546 27.8927 24.1596 8.89215 28.2442 24.8651 8.9948 28.5569 25.5674 9.09167 28.8317 26.2695 9.18117 29.0695 26.9748 9.26184 29.2705 27.6869 9.33232 29.435 28.4098 9.39132 29.5629 29.1482 9.43763 29.6538 29.9072 9.4701 29.7072 30.6927 9.4876 29.7219 31.5113 2.04785 10.5169 17.4033 2.84688 11.7471 17.1349 3.60472 12.9508 16.943 4.32135 14.1256 16.8257 4.99675 15.2696 16.7815 5.63094 16.3808 16.8092 6.22394 17.4575 16.9081 6.77581 18.498 17.078 7.28657 19.5007 17.3188 7.75628 20.4641 17.6313 8.18499 21.3866 18.0165 8.57272 22.2667 18.4758 8.9195 23.1029 19.0113 9.22534 23.8935 19.6256 9.49019 24.6368 20.3217 9.68939 25.2836 21.075 9.85241 25.8341 21.8121 10.0119 26.338 22.5377 10.1659 26.7969 23.2541 10.3126 27.2123 23.9639 10.4504 27.5855 24.6696 10.5779 27.9174 25.3745 10.6936 28.2091 26.0817 10.7963 28.4609 26.7952 10.8848 28.6733 27.519 10.958 28.8463 28.2578 11.0148 28.9797 29.017 11.0541 29.0729 29.8025 11.0748 29.1251 30.6211 11.0758 29.1349 31.4806 2.58505 9.92489 17.3695 3.43682 11.1441 17.1036 4.2474 12.3356 16.9129 5.01659 13.4973 16.7954 5.74427 14.6271 16.7494 6.43033 15.7233 16.7737 7.07469 16.7841 16.8676 7.6773 17.8079 17.0308 8.23812 18.7932 17.2633 8.75709 19.7386 17.5657 9.2342 20.6426 17.939 9.66938 21.5037 18.3848 10.0626 22.3204 18.9052 10.4137 23.0913 19.5026 10.7226 23.8146 20.1803 10.9757 24.4622 20.9209 11.1973 25.0333 21.6522 11.4078 25.5563 22.3729 11.6059 26.0328 23.0854 11.7902 26.4643 23.7923 11.9595 26.8518 24.4967 12.1127 27.1964 25.202 12.2488 27.4988 25.9118 12.3668 27.7595 26.6302 12.4656 27.9786 27.3621 12.5444 28.1562 28.1125 12.6021 28.2919 28.8875 12.6379 28.385 29.6936 12.6505 28.4343 30.5387 12.639 28.4383 31.4315 3.13105 9.34169 17.3405 4.03037 10.5475 17.0771 4.88883 11.7244 16.8878 5.70609 12.8704 16.7705 6.48184 13.9836 16.7233 7.21585 15.0622 16.7451 7.90792 16.1046 16.835 8.55789 17.1093 16.9928 9.16559 18.0748 17.2183 9.73091 18.9998 17.5124 10.2537 19.8829 17.8758 10.7338 20.7227 18.3103 11.1711 21.5179 18.8178 11.5653 22.2669 19.4009 11.9163 22.9683 20.063 12.2203 23.6107 20.7923 12.4974 24.1931 21.5181 12.7567 24.7267 22.2338 12.9973 25.2129 22.9419 13.2183 25.6531 23.6453 13.4189 26.0484 24.3474 13.5982 26.3996 25.0516 13.7555 26.7074 25.7621 13.89 26.9722 26.4834 14.0009 27.194 27.2205 14.0874 27.3728 27.9792 14.1487 27.5081 28.7659 14.1837 27.5989 29.588 14.1914 27.6442 30.4539 14.1707 27.6421 31.3733 3.6834 8.76483 17.3163 4.62575 9.95496 17.0553 5.52785 11.115 16.8674 6.38916 12.2431 16.7504 7.20923 13.3373 16.7025 7.98767 14.396 16.7225 8.72414 15.4177 16.8094 9.41837 16.401 16.9628 10.0701 17.3445 17.1828 10.679 18.2469 17.47 11.2449 19.107 17.8254 11.7676 19.9235 18.2506 12.2467 20.695 18.7475 12.682 21.4203 19.3189 13.0731 22.0978 19.9679 13.4252 22.7298 20.6877 13.7543 23.3151 21.4084 14.0596 23.8514 22.1193 14.3408 24.3401 22.8231 14.5971 24.7825 23.5229 14.8282 25.1796 24.2222 15.0334 25.532 24.9248 15.2121 25.8404 25.6349 15.3639 26.1051 26.3575 15.4881 26.3261 27.0978 15.5839 26.5032 2