<?xml version="1.0"?> 
<VTKFile type="StructuredGrid" version="0.1"> 
<StructuredGrid WholeExtent="0 29 0 29 0 29"> 
<Piece Extent="0 29 0 29 0 29"> 
<PointData>
<DataArray type="Float32" Name="efield" format="ascii" NumberOfComponents="3"> 
0 0 -0.134296 2.25234e-16 -0 -0.131933 3.90977e-16 -0 -0.129414 5.34352e-16 -0 -0.126739 6.44076e-16 -0 -0.123909 6.99457e-16 -0 -0.120923 7.7557e-16 -0 -0.117782 8.06676e-16 -0 -0.114485 8.28802e-16 -0 -0.111032 7.66193e-16 -0 -0.107423 8.25831e-16 -0 -0.103659 7.62142e-16 -0 -0.0997397 7.22375e-16 -0 -0.0956644 7.0126e-16 -0 -0.0914334 7.11038e-16 -0 -0.0870469 5.88318e-16 -0 -0.0825016 5.64029e-16 -0 -0.0777794 5.36696e-16 -0 -0.072877 4.37367e-16 -0 -0.0677945 4.32152e-16 -0 -0.0625319 3.463e-16 -0 -0.0570891 3.03138e-16 -0 -0.0514663 2.61377e-16 -0 -0.0456634 2.09277e-16 -0 -0.0396804 1.52938e-16 -0 -0.0335172 1.20772e-16 -0 -0.027174 6.70911e-17 -0 -0.0206507 4.41931e-17 -0 -0.0139472 2.18423e-17 -0 -0.00706366 0 0 0 1.90589e-16 1.90589e-16 -0.136099 3.52319e-16 1.66709e-16 -0.133832 4.83975e-16 1.3953e-16 -0.131404 5.88395e-16 1.19555e-16 -0.128815 6.7899e-16 1.057e-16 -0.126065 7.38568e-16 8.39022e-17 -0.123154 7.44768e-16 7.54586e-17 -0.120082 7.40943e-16 5.83863e-17 -0.116849 7.91394e-16 4.32749e-17 -0.113455 7.5184e-16 2.95973e-17 -0.1099 7.6488e-16 2.20218e-17 -0.106184 7.03716e-16 1.50119e-17 -0.102307 7.25757e-16 -3.19978e-19 -0.0982697 6.84768e-16 -7.21838e-18 -0.0940709 5.55881e-16 -1.53628e-17 -0.0897112 5.38975e-16 -2.20285e-17 -0.0851846 4.90278e-16 -2.60755e-17 -0.0804553 4.97927e-16 -2.67301e-17 -0.0755176 4.00217e-16 -2.94678e-17 -0.0703713 3.7812e-16 -3.54439e-17 -0.0650165 2.97276e-16 -3.42133e-17 -0.0594532 3.10208e-16 -3.54991e-17 -0.0536814 2.24513e-16 -3.4136e-17 -0.047701 2.14388e-16 -3.24684e-17 -0.0415122 1.3648e-16 -2.89317e-17 -0.0351148 1.08002e-16 -2.55586e-17 -0.0285089 6.84293e-17 -2.11828e-17 -0.0216944 3.75317e-17 -1.4951e-17 -0.0146715 1.8673e-17 -7.84864e-18 -0.00744 0 0 0 3.4519e-16 3.4519e-16 -0.137772 4.75417e-16 3.01492e-16 -0.135595 5.66387e-16 2.52159e-16 -0.133251 6.45473e-16 2.15523e-16 -0.130742 7.00234e-16 1.92492e-16 -0.128066 7.78324e-16 1.66825e-16 -0.125225 7.5187e-16 1.34281e-16 -0.122218 8.24537e-16 1.10151e-16 -0.119044 7.72791e-16 7.35153e-17 -0.115705 7.59035e-16 5.21793e-17 -0.1122 7.00177e-16 4.57438e-17 -0.108529 6.33424e-16 1.58872e-17 -0.104692 6.84263e-16 -1.65807e-18 -0.100689 6.66687e-16 -1.05603e-17 -0.0965201 5.71428e-16 -2.41781e-17 -0.0921852 5.86552e-16 -3.50332e-17 -0.0876759 4.67291e-16 -5.53273e-17 -0.0829402 4.50513e-16 -5.94454e-17 -0.0779696 3.30537e-16 -6.1894e-17 -0.0727641 3.39124e-16 -6.64385e-17 -0.0673237 2.58528e-16 -7.38786e-17 -0.0616485 2.61816e-16 -7.00676e-17 -0.0557382 1.96133e-16 -6.56516e-17 -0.0495931 1.64923e-16 -6.6518e-17 -0.0432131 1.25353e-16 -6.02644e-17 -0.0365982 9.09658e-17 -5.2251e-17 -0.0297484 5.54191e-17 -4.16277e-17 -0.0226636 2.84818e-17 -3.06375e-17 -0.015344 1.8242e-17 -1.65836e-17 -0.00778945 0 0 0 4.84355e-16 4.84355e-16 -0.139317 5.85579e-16 4.34876e-16 -0.137222 6.52398e-16 3.80836e-16 -0.134957 6.92482e-16 3.11033e-16 -0.13252 7.30022e-16 2.64048e-16 -0.129914 7.33293e-16 2.34138e-16 -0.127137 7.57705e-16 1.91172e-16 -0.124189 7.26742e-16 1.49545e-16 -0.121071 6.96485e-16 1.09603e-16 -0.117782 7.23886e-16 9.74996e-17 -0.114323 7.34721e-16 7.05881e-17 -0.110693 6.84034e-16 3.03065e-17 -0.106893 6.27233e-16 1.8308e-17 -0.102922 5.89433e-16 -3.6384e-18 -0.0987808 5.29192e-16 -3.44613e-17 -0.094469 5.00972e-16 -3.9406e-17 -0.0899755 4.8169e-16 -5.85724e-17 -0.0852339 4.30909e-16 -7.61285e-17 -0.080233 3.60784e-16 -8.11725e-17 -0.0749729 3.18225e-16 -9.383e-17 -0.0694535 2.79772e-16 -9.85887e-17 -0.0636748 2.63085e-16 -9.53337e-17 -0.0576369 1.94588e-16 -9.36033e-17 -0.0513397 1.49901e-16 -9.17936e-17 -0.0447832 1.00154e-16 -8.74993e-17 -0.0379675 8.80992e-17 -7.46124e-17 -0.0308925 6.54513e-17 -6.00993e-17 -0.0235583 3.45963e-17 -4.3802e-17 -0.0159648 1.50672e-17 -2.36248e-17 -0.00811203 0 0 0 6.06642e-16 6.06642e-16 -0.140733 6.31284e-16 4.9903e-16 -0.138714 7.24244e-16 4.65408e-16 -0.13652 7.49316e-16 4.04008e-16 -0.134151 7.68151e-16 3.4515e-16 -0.131607 7.57184e-16 2.94535e-16 -0.128889 7.31955e-16 2.28637e-16 -0.125996 7.98015e-16 2.02403e-16 -0.122928 7.40178e-16 1.47971e-16 -0.119686 7.30893e-16 1.21845e-16 -0.116269 6.77212e-16 7.14692e-17 -0.112677 6.95852e-16 5.88301e-17 -0.10891 6.03321e-16 2.26633e-17 -0.104969 5.83054e-16 -1.09368e-17 -0.100853 5.50791e-16 -2.40722e-17 -0.0965624 4.9657e-16 -4.51065e-17 -0.0920835 4.90111e-16 -7.45447e-17 -0.0873365 3.7946e-16 -8.91827e-17 -0.0823078 3.3635e-16 -1.0282e-16 -0.0769976 2.95932e-16 -1.13527e-16 -0.0714057 2.81265e-16 -1.16425e-16 -0.0655323 2.04929e-16 -1.2093e-16 -0.0593773 2.22012e-16 -1.24982e-16 -0.0529407 1.46683e-16 -1.11968e-16 -0.0462225 1.06518e-16 -1.08514e-16 -0.0392227 9.26971e-17 -9.44384e-17 -0.0319414 5.42647e-17 -7.91234e-17 -0.0243784 3.58774e-17 -5.58243e-17 -0.0165339 1.30871e-17 -3.0909e-17 -0.00840772 0 0 0 7.14812e-16 7.14812e-16 -0.142021 7.45957e-16 6.22102e-16 -0.14007 7.80917e-16 5.5198e-16 -0.137941 7.84345e-16 4.69992e-16 -0.135633 8.16319e-16 4.24323e-16 -0.133147 7.82872e-16 3.56146e-16 -0.130482 7.5496e-16 3.09053e-16 -0.127639 7.43061e-16 2.38818e-16 -0.124617 7.77202e-16 1.96414e-16 -0.121417 6.64345e-16 1.22947e-16 -0.118038 6.57711e-16 9.62903e-17 -0.114481 6.30395e-16 4.16579e-17 -0.110745 5.51223e-16 2.26726e-17 -0.10683 5.6113e-16 -3.9478e-18 -0.102737 4.89419e-16 -2.07936e-17 -0.0984655 4.65588e-16 -6.36527e-17 -0.0939999 4.46824e-16 -8.97695e-17 -0.0892479 3.58154e-16 -9.22499e-17 -0.084194 3.41304e-16 -1.12503e-16 -0.0788382 2.99936e-16 -1.2196e-16 -0.0731805 2.61062e-16 -1.28314e-16 -0.0672209 1.89195e-16 -1.2089e-16 -0.0609595 1.69282e-16 -1.4101e-16 -0.0543961 1.27144e-16 -1.31313e-16 -0.0475309 5.30265e-17 -1.25701e-16 -0.0403638 6.02415e-17 -1.07169e-16 -0.0328948 3.47717e-17 -9.34722e-17 -0.0251239 1.28783e-17 -6.77909e-17 -0.0170512 1.16275e-17 -3.32881e-17 -0.00867653 0 0 0 8.02236e-16 8.02236e-16 -0.143179 8.22499e-16 7.07507e-16 -0.141291 8.63195e-16 6.52383e-16 -0.13922 8.38263e-16 5.30742e-16 -0.136967 8.37845e-16 4.69673e-16 -0.134533 8.54838e-16 4.24834e-16 -0.131916 8.26426e-16 3.54446e-16 -0.129118 8.09291e-16 3.02799e-16 -0.126137 7.32532e-16 1.94785e-16 -0.122975 7.13789e-16 1.68425e-16 -0.11963 6.72365e-16 1.32252e-16 -0.116104 6.13674e-16 6.853e-17 -0.112395 5.95789e-16 2.96541e-17 -0.108505 6.02919e-16 8.20434e-19 -0.104433 5.45921e-16 -1.99522e-17 -0.100178 4.32929e-16 -7.82472e-17 -0.0957246 4.16461e-16 -1.04808e-16 -0.0909682 3.65008e-16 -1.29215e-16 -0.0858915 3.15428e-16 -1.24147e-16 -0.0804947 2.87247e-16 -1.36355e-16 -0.0747778 2.50821e-16 -1.6289e-16 -0.0687407 1.97296e-16 -1.55995e-16 -0.0623835 1.59706e-16 -1.67262e-16 -0.0557061 1.10398e-16 -1.72656e-16 -0.0487085 9.00827e-17 -1.51273e-16 -0.0413908 4.97873e-17 -1.29944e-16 -0.0337529 4.17293e-17 -1.08075e-16 -0.0257949 2.2145e-17 -7.62299e-17 -0.0175168 7.10473e-18 -4.38804e-17 -0.00891847 0 0 0 8.71072e-16 8.71072e-16 -0.144209 8.42613e-16 7.43802e-16 -0.142376 8.5005e-16 6.74477e-16 -0.140357 8.59174e-16 6.04964e-16 -0.138153 8.37374e-16 5.26575e-16 -0.135765 8.06442e-16 4.53873e-16 -0.133191 8.41607e-16 4.20001e-16 -0.130432 7.74131e-16 3.44538e-16 -0.127488 7.46751e-16 2.76397e-16 -0.124359 6.72345e-16 2.11031e-16 -0.121046 6.24126e-16 1.58134e-16 -0.117547 5.98807e-16 9.90757e-17 -0.113863 5.43053e-16 7.38826e-17 -0.109994 4.91995e-16 1.53118e-17 -0.10594 4.59871e-16 -1.32888e-17 -0.101701 3.98018e-16 -5.76216e-17 -0.0972577 3.05034e-16 -9.76061e-17 -0.0924973 3.4038e-16 -1.00281e-16 -0.0874005 2.5232e-16 -1.43362e-16 -0.0819672 2.23558e-16 -1.40434e-16 -0.0761976 1.82331e-16 -1.62847e-16 -0.0700916 1.45613e-16 -1.78639e-16 -0.0636492 1.20316e-16 -1.7264e-16 -0.0568704 8.10831e-17 -1.63456e-16 -0.0497552 4.94589e-17 -1.49823e-16 -0.0423037 1.46333e-17 -1.3213e-16 -0.0345157 1.21042e-17 -1.17015e-16 -0.0263914 2.12657e-18 -8.20678e-17 -0.0179306 -4.95413e-18 -4.46155e-17 -0.00913352 0 0 0 9.3972e-16 9.3972e-16 -0.14511 8.78429e-16 7.99928e-16 -0.143325 9.45696e-16 7.93962e-16 -0.141352 8.68491e-16 6.65761e-16 -0.139191 8.54604e-16 6.03746e-16 -0.136842 8.18475e-16 5.08147e-16 -0.134306 8.00766e-16 4.50805e-16 -0.131582 7.0586e-16 3.4611e-16 -0.12867 6.82221e-16 2.96601e-16 -0.125571 6.57648e-16 2.49201e-16 -0.122284 6.10597e-16 2.14409e-16 -0.118809 5.86195e-16 1.33105e-16 -0.115147 5.13162e-16 8.01057e-17 -0.111296 4.27662e-16 3.83824e-17 -0.107258 3.83105e-16 -1.73672e-17 -0.103033 3.4124e-16 -6.85238e-17 -0.0985992 3.01739e-16 -8.46028e-17 -0.0938353 2.37924e-16 -1.42351e-16 -0.0887208 1.81061e-16 -1.66068e-16 -0.0832557 1.86147e-16 -1.6265e-16 -0.07744 1.57225e-16 -1.65063e-16 -0.0712736 8.67354e-17 -2.0383e-16 -0.0647567 8.34728e-17 -1.8442e-16 -0.0578892 3.88167e-17 -1.75903e-16 -0.0506711 3.78764e-17 -1.64683e-16 -0.0431024 4.42543e-18 -1.53662e-16 -0.0351832 3.54463e-18 -1.25342e-16 -0.0269133 -1.25244e-17 -9.43875e-17 -0.0182928 -7.19271e-18 -5.03073e-17 -0.00932168 0 0 0 9.5905e-16 9.5905e-16 -0.145883 9.22752e-16 8.5421e-16 -0.144139 8.80744e-16 7.5429e-16 -0.142204 8.75514e-16 6.8493e-16 -0.14008 8.48087e-16 6.28234e-16 -0.137766 7.99314e-16 5.37552e-16 -0.135262 7.44394e-16 4.53408e-16 -0.132568 7.22306e-16 3.98952e-16 -0.129684 6.57065e-16 3.26638e-16 -0.12661 6.00504e-16 2.53766e-16 -0.123345 5.56937e-16 1.78318e-16 -0.119891 4.84809e-16 1.23317e-16 -0.116247 5.23057e-16 1.25284e-16 -0.112413 4.27406e-16 5.3439e-17 -0.108389 3.9119e-16 2.64988e-17 -0.104175 3.40129e-16 -2.22635e-17 -0.099749 2.55931e-16 -7.7778e-17 -0.0949821 2.47863e-16 -1.06169e-16 -0.0898525 1.75976e-16 -1.50623e-16 -0.08436 1.36982e-16 -1.50562e-16 -0.0785048 1.32699e-16 -1.41894e-16 -0.0722868 8.04582e-17 -1.69562e-16 -0.0657061 5.34561e-17 -1.78279e-16 -0.0587625 1.84198e-17 -1.72469e-16 -0.0514562 3.29515e-18 -1.66849e-16 -0.0437871 -2.18387e-18 -1.44109e-16 -0.0357552 -2.56033e-17 -1.30714e-16 -0.0273606 -1.24999e-17 -8.53177e-17 -0.0186032 -1.29937e-17 -4.84087e-17 -0.00948297 0 0 0 1.04564e-15 1.04564e-15 -0.146526 1.02988e-15 9.76058e-16 -0.144817 9.82513e-16 8.74734e-16 -0.142915 9.28605e-16 7.79435e-16 -0.140821 8.40825e-16 6.58377e-16 -0.138536 8.11129e-16 6.02348e-16 -0.136059 7.90197e-16 5.41819e-16 -0.133389 7.23636e-16 4.6496e-16 -0.130528 6.59564e-16 3.90408e-16 -0.127475 5.45754e-16 2.64832e-16 -0.12423 5.06569e-16 2.28016e-16 -0.120793 4.78288e-16 1.86602e-16 -0.117164 4.50124e-16 1.4741e-16 -0.113343 3.38853e-16 5.0689e-17 -0.109331 3.15966e-16 1.81341e-17 -0.105126 2.36755e-16 -4.44346e-17 -0.100707 2.33899e-16 -4.79517e-17 -0.0959378 1.79871e-16 -8.06352e-17 -0.0907956 1.62675e-16 -1.00225e-16 -0.0852803 9.92413e-17 -1.3954e-16 -0.0793922 5.65758e-17 -1.54612e-16 -0.0731311 3.78409e-17 -1.74997e-16 -0.0664972 1.46641e-17 -1.82625e-16 -0.0594902 -1.60017e-17 -1.75045e-16 -0.0521104 -2.01794e-17 -1.58396e-16 -0.0443577 -4.47043e-17 -1.45982e-16 -0.036232 -4.15942e-17 -1.2413e-16 -0.0277334 -2.83839e-17 -8.97971e-17 -0.0188618 -1.89835e-17 -4.87688e-17 -0.00961738 0 0 0 1.06821e-15 1.06821e-15 -0.147041 1.01049e-15 9.71245e-16 -0.145359 8.89405e-16 8.13887e-16 -0.143483 8.85361e-16 7.8933e-16 -0.141414 8.58664e-16 7.27906e-16 -0.139152 7.89475e-16 6.46756e-16 -0.136696 7.61616e-16 5.88737e-16 -0.134046 6.60146e-16 4.88216e-16 -0.131204 5.99961e-16 4.11625e-16 -0.128167 5.36606e-16 3.41569e-16 -0.124938 4.81042e-16 2.70844e-16 -0.121514 4.23159e-16 2.06783e-16 -0.117898 3.80555e-16 1.77618e-16 -0.114088 3.08362e-16 9.45658e-17 -0.110084 2.52684e-16 4.62243e-17 -0.105888 2.26415e-16 1.90168e-17 -0.101474 1.84201e-16 -2.74339e-17 -0.0967024 1.26724e-16 -5.61799e-17 -0.09155 1.33269e-16 -6.2744e-17 -0.0860166 7.58859e-17 -1.06625e-16 -0.0801021 3.44032e-17 -1.23168e-16 -0.0738066 1.23797e-17 -1.43467e-16 -0.06713 -2.58656e-17 -1.62287e-16 -0.0600724 -5.40178e-17 -1.72038e-16 -0.0526338 -6.22697e-17 -1.63836e-16 -0.0448141 -6.58073e-17 -1.46648e-16 -0.0366134 -5.52767e-17 -1.26386e-16 -0.0280316 -4.20939e-17 -8.8452e-17 -0.0190688 -2.65543e-17 -5.06819e-17 -0.0097249 0 0 0 1.0608e-15 1.0608e-15 -0.147428 1.02849e-15 9.99438e-16 -0.145766 9.00097e-16 8.46798e-16 -0.14391 8.35972e-16 7.58833e-16 -0.141859 8.00762e-16 7.04055e-16 -0.139614 7.04e-16 5.94068e-16 -0.137174 6.65293e-16 5.46058e-16 -0.134539 6.58888e-16 5.23505e-16 -0.13171 5.91431e-16 4.51237e-16 -0.128687 5.53671e-16 4.06843e-16 -0.125468 4.88082e-16 3.40935e-16 -0.122055 4.07454e-16 2.48503e-16 -0.118448 3.53199e-16 1.86126e-16 -0.114646 3.10625e-16 1.60654e-16 -0.11065 2.58293e-16 1.07256e-16 -0.106458 1.90799e-16 3.55339e-17 -0.102049 1.22411e-16 -2.50575e-17 -0.0972758 1.05927e-16 -4.89729e-17 -0.0921159 6.11605e-17 -7.75555e-17 -0.0865688 4.62539e-17 -9.20592e-17 -0.0806345 -6.33486e-18 -1.24468e-16 -0.0743132 -3.3525e-17 -1.38029e-16 -0.0676047 -5.07225e-17 -1.4846e-16 -0.0605091 -3.54047e-17 -1.36163e-16 -0.0530263 -5.77096e-17 -1.40099e-16 -0.0451564 -7.10762e-17 -1.32716e-16 -0.0368994 -6.61494e-17 -1.10828e-16 -0.0282552 -4.977e-17 -8.39925e-17 -0.019224 -2.62056e-17 -4.51238e-17 -0.00980555 0 0 0 1.08793e-15 1.08793e-15 -0.147685 9.89295e-16 9.64564e-16 -0.146037 9.20926e-16 8.76436e-16 -0.144194 9.12967e-16 8.51432e-16 -0.142156 8.1523e-16 7.35858e-16 -0.139922 7.76139e-16 6.8334e-16 -0.137492 7.06286e-16 6.05418e-16 -0.134868 6.39635e-16 5.28584e-16 -0.132048 5.76168e-16 4.53269e-16 -0.129033 4.79811e-16 3.62433e-16 -0.125822 4.21895e-16 2.93611e-16 -0.122416 3.8534e-16 2.57146e-16 -0.118815 3.25543e-16 1.99613e-16 -0.115018 2.24418e-16 1.00134e-16 -0.111026 2.18182e-16 9.29482e-17 -0.106839 2.06151e-16 9.02685e-17 -0.102432 1.99957e-16 8.1766e-17 -0.0976581 9.75469e-17 -1.54244e-17 -0.0924931 3.64864e-17 -6.30437e-17 -0.0869369 2.28927e-17 -7.85448e-17 -0.0809895 -6.93176e-18 -1.02141e-16 -0.0746509 -4.55098e-17 -1.32172e-16 -0.0679211 -7.51601e-17 -1.53281e-16 -0.0608002 -7.65753e-17 -1.43078e-16 -0.053288 -6.37519e-17 -1.2211e-16 -0.0453846 -8.70749e-17 -1.34296e-16 -0.0370901 -7.67849e-17 -1.13164e-16 -0.0284044 -5.61521e-17 -7.96837e-17 -0.0193274 -3.01055e-17 -4.24312e-17 -0.00985931 0 0 0 1.1493e-15 1.1493e-15 -0.147814 1.00861e-15 1.00189e-15 -0.146173 9.94019e-16 9.81311e-16 -0.144336 9.17583e-16 8.99085e-16 -0.142304 8.41144e-16 8.19441e-16 -0.140076 7.66204e-16 7.41417e-16 -0.137652 6.65271e-16 6.36435e-16 -0.135032 7.05258e-16 6.7298e-16 -0.132217 5.26426e-16 4.92099e-16 -0.129206 4.86202e-16 4.49944e-16 -0.125999 4.21501e-16 3.84042e-16 -0.122597 4.08075e-16 3.69729e-16 -0.118998 3.22899e-16 2.85833e-16 -0.115204 3.11999e-16 2.72595e-16 -0.111215 2.55588e-16 2.18029e-16 -0.107029 1.61714e-16 1.26037e-16 -0.102624 1.17635e-16 7.76773e-17 -0.0978493 7.3726e-17 3.70281e-17 -0.0926817 5.23852e-17 1.69621e-17 -0.087121 1.61972e-18 -3.24412e-17 -0.081167 -5.7704e-17 -8.68387e-17 -0.0748198 -5.05266e-17 -8.01718e-17 -0.0680793 -6.87884e-17 -9.43851e-17 -0.0609457 -8.99029e-17 -1.13469e-16 -0.0534188 -9.30302e-17 -1.1373e-16 -0.0454987 -8.24577e-17 -9.95842e-17 -0.0371854 -7.9091e-17 -9.16025e-17 -0.0284789 -6.42738e-17 -7.28936e-17 -0.0193792 -3.61482e-17 -4.07474e-17 -0.00988619 0 0 0 1.08545e-15 1.08545e-15 -0.147814 9.40777e-16 9.43986e-16 -0.146173 9.23041e-16 9.28669e-16 -0.144336 8.43261e-16 8.52078e-16 -0.142304 7.362e-16 7.46223e-16 -0.140076 7.18767e-16 7.30557e-16 -0.137652 6.15741e-16 6.28999e-16 -0.135032 5.72318e-16 5.8503e-16 -0.132217 4.76129e-16 4.88263e-16 -0.129206 4.07901e-16 4.23807e-16 -0.125999 3.44611e-16 3.59785e-16 -0.122597 2.84154e-16 2.98835e-16 -0.118998 2.26749e-16 2.41141e-16 -0.115204 1.72611e-16 1.86882e-16 -0.111215 1.63136e-16 1.8107e-16 -0.107029 7.41845e-17 9.01297e-17 -0.102624 6.98835e-17 8.5956e-17 -0.0978493 2.94536e-17 4.41297e-17 -0.0926817 -4.02253e-17 -2.78886e-17 -0.087121 -6.84418e-17 -5.80951e-17 -0.081167 -9.33558e-17 -8.06707e-17 -0.0748198 -1.10015e-16 -1.00071e-16 -0.0680793 -1.33854e-16 -1.23328e-16 -0.0609457 -1.06286e-16 -9.74666e-17 -0.0534188 -1.33179e-16 -1.25748e-16 -0.0454987 -1.2181e-16 -1.16691e-16 -0.0371854 -9.25035e-17 -8.91142e-17 -0.0284789 -8.07518e-17 -7.82672e-17 -0.0193792 -4.47599e-17 -4.32166e-17 -0.00988619 0 0 0 1.08793e-15 1.08793e-15 -0.147685 9.64564e-16 9.89295e-16 -0.146037 8.76436e-16 9.20926e-16 -0.144194 8.51432e-16 9.12967e-16 -0.142156 7.35858e-16 8.1523e-16 -0.139922 6.8334e-16 7.76139e-16 -0.137492 6.05418e-16 7.06286e-16 -0.134868 5.28584e-16 6.39635e-16 -0.132048 4.53269e-16 5.76168e-16 -0.129033 3.62433e-16 4.79811e-16 -0.125822 2.93611e-16 4.21895e-16 -0.122416 2.57146e-16 3.8534e-16 -0.118815 1.99613e-16 3.25543e-16 -0.115018 1.00134e-16 2.24418e-16 -0.111026 9.29482e-17 2.18182e-16 -0.106839 9.02685e-17 2.06151e-16 -0.102432 4.36117e-17 1.60109e-16 -0.0976581 -1.54244e-17 9.75469e-17 -0.0924931 -6.30437e-17 3.64864e-17 -0.0869369 -9.32604e-17 5.64832e-18 -0.0809895 -1.15698e-16 -2.26597e-17 -0.0746509 -1.42859e-16 -6.15858e-17 -0.0679211 -1.53281e-16 -7.51601e-17 -0.0608002 -1.43078e-16 -7.65753e-17 -0.053288 -1.46738e-16 -9.12733e-17 -0.0453846 -1.40996e-16 -9.44959e-17 -0.0370901 -1.17671e-16 -8.31305e-17 -0.0284044 -8.27528e-17 -6.04215e-17 -0.0193274 -4.39978e-17 -3.22592e-17 -0.00985931 0 0 0 1.0608e-15 1.0608e-15 -0.147428 9.98685e-16 1.02947e-15 -0.145766 8.47512e-16 8.99169e-16 -0.14391 8.80161e-16 9.58629e-16 -0.141859 6.72246e-16 7.73468e-16 -0.139614 6.79171e-16 7.94684e-16 -0.137174 5.46058e-16 6.65293e-16 -0.134539 4.68139e-16 6.03292e-16 -0.13171 4.49172e-16 5.94112e-16 -0.128687 3.52103e-16 5.04536e-16 -0.125468 3.10655e-16 4.69229e-16 -0.122055 2.48503e-16 4.07454e-16 -0.118448 1.46059e-16 2.97066e-16 -0.114646 6.76234e-17 2.23738e-16 -0.11065 4.66183e-17 1.87949e-16 -0.106458 2.06001e-18 1.39493e-16 -0.102049 9.30858e-19 1.33594e-16 -0.0972758 -1.99261e-17 1.10528e-16 -0.0921159 -5.05017e-17 6.55881e-17 -0.0865688 -8.05776e-17 3.13423e-17 -0.0806345 -9.6044e-17 2.39438e-17 -0.0743132 -1.34965e-16 -3.7504e-17 -0.0676047 -1.38221e-16 -3.69605e-17 -0.0605091 -1.58559e-16 -7.70664e-17 -0.0530263 -1.42032e-16 -7.51712e-17 -0.0451564 -1.39007e-16 -7.91342e-17 -0.0368994 -1.16805e-16 -7.07437e-17 -0.0282552 -8.24581e-17 -5.17627e-17 -0.019224 -4.65667e-17 -3.28126e-17 -0.00980555 0 0 0 1.06821e-15 1.06821e-15 -0.147041 9.71245e-16 1.01049e-15 -0.145359 8.13887e-16 8.89405e-16 -0.143483 7.8933e-16 8.85361e-16 -0.141414 7.27906e-16 8.58664e-16 -0.139152 6.46756e-16 7.89475e-16 -0.136696 6.14334e-16 7.9473e-16 -0.134046 5.13441e-16 6.91975e-16 -0.131204 4.11625e-16 5.99961e-16 -0.128167 3.41569e-16 5.36606e-16 -0.124938 2.70844e-16 4.81042e-16 -0.121514 2.29929e-16 4.49857e-16 -0.117898 1.77618e-16 3.80555e-16 -0.114088 1.13496e-16 3.3661e-16 -0.110084 4.62243e-17 2.52684e-16 -0.105888 1.90168e-17 2.26415e-16 -0.101474 -2.74339e-17 1.84201e-16 -0.0967024 -4.0003e-17 1.48649e-16 -0.09155 -6.2744e-17 1.33269e-16 -0.0860166 -1.06625e-16 7.58859e-17 -0.0801021 -1.23168e-16 3.44032e-17 -0.0738066 -1.43467e-16 1.23797e-17 -0.06713 -1.53908e-16 -9.01183e-18 -0.0600724 -1.64615e-16 -3.95028e-17 -0.0526338 -1.63836e-16 -6.22697e-17 -0.0448141 -1.46648e-16 -6.58073e-17 -0.0366134 -1.26386e-16 -5.52767e-17 -0.0280316 -8.8452e-17 -4.20939e-17 -0.0190688 -5.06819e-17 -2.65543e-17 -0.0097249 0 0 0 1.04564e-15 1.04564e-15 -0.146526 9.76058e-16 1.02988e-15 -0.144817 8.74734e-16 9.82513e-16 -0.142915 7.79435e-16 9.28605e-16 -0.140821 6.58377e-16 8.40825e-16 -0.138536 6.02348e-16 8.11129e-16 -0.136059 5.41819e-16 7.90197e-16 -0.133389 4.6496e-16 7.23636e-16 -0.130528 3.90408e-16 6.59564e-16 -0.127475 2.64832e-16 5.45754e-16 -0.12423 2.28016e-16 5.06569e-16 -0.120793 1.86602e-16 4.78288e-16 -0.117164 1.4741e-16 4.50124e-16 -0.113343 5.0689e-17 3.38853e-16 -0.109331 1.81341e-17 3.15966e-16 -0.105126 -4.44346e-17 2.36755e-16 -0.100707 -4.79517e-17 2.33899e-16 -0.0959378 -8.06352e-17 1.79871e-16 -0.0907956 -1.00225e-16 1.62675e-16 -0.0852803 -1.3954e-16 9.92413e-17 -0.0793922 -1.54612e-16 5.65758e-17 -0.0731311 -1.74997e-16 3.78409e-17 -0.0664972 -1.82625e-16 1.46641e-17 -0.0594902 -1.75045e-16 -1.60017e-17 -0.0521104 -1.58396e-16 -2.01794e-17 -0.0443577 -1.45982e-16 -4.47043e-17 -0.036232 -1.2413e-16 -4.15942e-17 -0.0277334 -8.97971e-17 -2.83839e-17 -0.0188618 -4.87688e-17 -1.89835e-17 -0.00961738 0 0 0 9.92121e-16 9.92121e-16 -0.145883 8.87099e-16 9.54637e-16 -0.144139 7.84644e-16 9.15639e-16 -0.142204 7.19401e-16 9.0113e-16 -0.14008 6.5608e-16 8.83986e-16 -0.137766 5.6517e-16 8.33677e-16 -0.135262 4.60697e-16 7.31046e-16 -0.132568 3.7545e-16 6.84629e-16 -0.129684 3.26638e-16 6.57065e-16 -0.12661 2.88953e-16 6.12153e-16 -0.123345 1.89851e-16 5.35816e-16 -0.119891 1.45407e-16 5.15418e-16 -0.116247 1.13894e-16 4.75506e-16 -0.112413 3.72278e-17 3.91435e-16 -0.108389 -1.86039e-17 3.48155e-16 -0.104175 -3.77226e-17 3.08568e-16 -0.099749 -6.28239e-17 2.85291e-16 -0.0949821 -1.13434e-16 2.07735e-16 -0.0898525 -1.30473e-16 1.89007e-16 -0.08436 -1.69327e-16 1.25098e-16 -0.0785048 -1.59183e-16 1.21976e-16 -0.0722868 -1.85285e-16 7.09083e-17 -0.0657061 -1.7417e-16 4.59313e-17 -0.0587625 -1.84791e-16 1.12422e-17 -0.0514562 -1.66849e-16 3.29515e-18 -0.0437871 -1.52674e-16 -6.96752e-18 -0.0357552 -1.2896e-16 -2.88146e-17 -0.0273606 -8.41497e-17 -1.46387e-17 -0.0186032 -4.67206e-17 -1.07353e-17 -0.00948297 0 0 0 9.3972e-16 9.3972e-16 -0.14511 7.99928e-16 8.78429e-16 -0.143325 7.93962e-16 9.45696e-16 -0.141352 6.65761e-16 8.68491e-16 -0.139191 6.03746e-16 8.54604e-16 -0.136842 5.08147e-16 8.18475e-16 -0.134306 4.50805e-16 8.00766e-16 -0.131582 3.4611e-16 7.0586e-16 -0.12867 2.96601e-16 6.82221e-16 -0.125571 2.49201e-16 6.57648e-16 -0.122284 2.14409e-16 6.10597e-16 -0.118809 1.33105e-16 5.86195e-16 -0.115147 8.01057e-17 5.13162e-16 -0.111296 3.83824e-17 4.27662e-16 -0.107258 -1.73672e-17 3.83105e-16 -0.103033 -6.85238e-17 3.4124e-16 -0.0985992 -8.46028e-17 3.01739e-16 -0.0938353 -1.42351e-16 2.37924e-16 -0.0887208 -1.66068e-16 1.81061e-16 -0.0832557 -1.6265e-16 1.86147e-16 -0.07744 -1.65063e-16 1.57225e-16 -0.0712736 -2.0383e-16 8.67354e-17 -0.0647567 -1.8442e-16 8.34728e-17 -0.0578892 -1.75903e-16 3.88167e-17 -0.0506711 -1.64683e-16 3.78764e-17 -0.0431024 -1.53662e-16 4.42543e-18 -0.0351832 -1.25342e-16 3.54463e-18 -0.0269133 -9.43875e-17 -1.25244e-17 -0.0182928 -5.03073e-17 -7.19271e-18 -0.00932168 0 0 0 8.71072e-16 8.71072e-16 -0.144209 7.27783e-16 8.23933e-16 -0.142376 7.08266e-16 8.81156e-16 -0.140357 6.08473e-16 8.50731e-16 -0.138153 5.4313e-16 8.51498e-16 -0.135765 4.70206e-16 8.19882e-16 -0.133191 4.09804e-16 8.14693e-16 -0.130432 3.08258e-16 7.11131e-16 -0.127488 2.71359e-16 7.10191e-16 -0.124359 2.26139e-16 6.83201e-16 -0.121046 1.58134e-16 6.24126e-16 -0.117547 9.34066e-17 5.68384e-16 -0.113863 6.0022e-17 5.33999e-16 -0.109994 1.53118e-17 4.91995e-16 -0.10594 -1.32888e-17 4.59871e-16 -0.101701 -6.99689e-17 3.90668e-16 -0.0972577 -9.76061e-17 3.05034e-16 -0.0924973 -1.22562e-16 3.27907e-16 -0.0874005 -1.32895e-16 2.58002e-16 -0.0819672 -1.59925e-16 2.13298e-16 -0.0761976 -1.62847e-16 1.82331e-16 -0.0700916 -1.70475e-16 1.49651e-16 -0.0636492 -1.58032e-16 1.27318e-16 -0.0568704 -1.69854e-16 7.81124e-17 -0.0497552 -1.55269e-16 4.70103e-17 -0.0423037 -1.41025e-16 1.07617e-17 -0.0345157 -1.20418e-16 1.06708e-17 -0.0263914 -8.43822e-17 1.18401e-18 -0.0179306 -4.57953e-17 -5.4185e-18 -0.00913352 0 0 0 7.84796e-16 7.84796e-16 -0.143179 6.91013e-16 8.03486e-16 -0.141291 6.02274e-16 8.11455e-16 -0.13922 5.64928e-16 8.68046e-16 -0.136967 4.83672e-16 8.60145e-16 -0.134533 4.30291e-16 8.39424e-16 -0.131916 3.32911e-16 8.28302e-16 -0.129118 2.91525e-16 7.83735e-16 -0.126137 2.30857e-16 7.4218e-16 -0.122975 1.83826e-16 7.24354e-16 -0.11963 1.2524e-16 6.39876e-16 -0.116104 6.853e-17 6.13674e-16 -0.112395 2.26565e-17 6.15556e-16 -0.108505 7.34985e-18 5.84475e-16 -0.104433 -3.40056e-17 4.96608e-16 -0.100178 -7.00622e-17 4.94566e-16 -0.0957246 -8.61038e-17 4.43891e-16 -0.0909682 -1.11372e-16 3.90126e-16 -0.0858915 -1.34771e-16 3.10177e-16 -0.0804947 -1.50195e-16 2.93698e-16 -0.0747778 -1.6289e-16 2.50821e-16 -0.0687407 -1.70542e-16 2.11346e-16 -0.0623835 -1.67262e-16 1.59706e-16 -0.0557061 -1.57879e-16 1.31541e-16 -0.0487085 -1.49633e-16 1.03199e-16 -0.0413908 -1.27117e-16 7.06453e-17 -0.0337529 -1.13828e-16 4.70011e-17 -0.0257949 -7.54227e-17 2.72951e-17 -0.0175168 -4.03001e-17 8.29912e-18 -0.00891847 0 0 0 7.14812e-16 7.14812e-16 -0.142021 6.22102e-16 7.45957e-16 -0.14007 5.5198e-16 7.80917e-16 -0.137941 4.69992e-16 7.84345e-16 -0.135633 4.24323e-16 8.16319e-16 -0.133147 3.56146e-16 7.82872e-16 -0.130482 3.09053e-16 7.5496e-16 -0.127639 2.38818e-16 7.43061e-16 -0.124617 1.96414e-16 7.77202e-16 -0.121417 1.22947e-16 6.64345e-16 -0.118038 9.62903e-17 6.57711e-16 -0.114481 4.16579e-17 6.30395e-16 -0.110745 2.26726e-17 5.51223e-16 -0.10683 -3.9478e-18 5.6113e-16 -0.102737 -2.07936e-17 4.89419e-16 -0.0984655 -6.36527e-17 4.65588e-16 -0.0939999 -8.97695e-17 4.46824e-16 -0.0892479 -9.22499e-17 3.58154e-16 -0.084194 -1.12503e-16 3.41304e-16 -0.0788382 -1.2196e-16 2.99936e-16 -0.0731805 -1.28314e-16 2.61062e-16 -0.0672209 -1.2089e-16 1.89195e-16 -0.0609595 -1.4101e-16 1.69282e-16 -0.0543961 -1.31313e-16 1.27144e-16 -0.0475309 -1.25701e-16 5.30265e-17 -0.0403638 -1.07169e-16 6.02415e-17 -0.0328948 -9.34722e-17 3.47717e-17 -0.0251239 -6.77909e-17 1.28783e-17 -0.0170512 -3.32881e-17 1.16275e-17 -0.00867653 0 0 0 6.06642e-16 6.06642e-16 -0.140733 4.9903e-16 6.31284e-16 -0.138714 4.67725e-16 7.14387e-16 -0.13652 3.88242e-16 7.24979e-16 -0.134151 3.4515e-16 7.68151e-16 -0.131607 3.08167e-16 7.86589e-16 -0.128889 2.52212e-16 8.02121e-16 -0.125996 2.05737e-16 7.8383e-16 -0.122928 1.47971e-16 7.40178e-16 -0.119686 1.11675e-16 6.96079e-16 -0.116269 8.15821e-17 7.09667e-16 -0.112677 4.88236e-17 6.65646e-16 -0.10891 2.3033e-17 6.71723e-16 -0.104969 -1.97528e-17 6.20564e-16 -0.100853 -5.51559e-17 5.54943e-16 -0.0965624 -8.38152e-17 4.78481e-16 -0.0920835 -9.90754e-17 4.79196e-16 -0.0873365 -9.55529e-17 4.06564e-16 -0.0823078 -1.14406e-16 3.85649e-16 -0.0769976 -1.23614e-16 2.92077e-16 -0.0714057 -1.30369e-16 2.97775e-16 -0.0655323 -1.29176e-16 2.40014e-16 -0.0593773 -1.24982e-16 2.22012e-16 -0.0529407 -1.21591e-16 1.57656e-16 -0.0462225 -1.16626e-16 1.15664e-16 -0.0392227 -1.01533e-16 8.16682e-17 -0.0319414 -7.71442e-17 6.1532e-17 -0.0243784 -5.95543e-17 3.05218e-17 -0.0165339 -3.26063e-17 1.49259e-17 -0.00840772 0 0 0 4.84355e-16 4.84355e-16 -0.139317 4.34876e-16 5.85579e-16 -0.137222 3.80836e-16 6.52398e-16 -0.134957 3.11033e-16 6.92482e-16 -0.13252 2.64048e-16 7.30022e-16 -0.129914 2.49091e-16 7.63016e-16 -0.127137 1.91172e-16 7.57705e-16 -0.124189 1.49545e-16 7.26742e-16 -0.121071 1.13226e-16 7.28652e-16 -0.117782 9.74996e-17 7.23886e-16 -0.114323 7.05881e-17 7.34721e-16 -0.110693 4.18057e-17 7.14009e-16 -0.106893 2.21375e-17 6.51236e-16 -0.102922 -3.6384e-18 5.89433e-16 -0.0987808 -3.44613e-17 5.29192e-16 -0.094469 -3.9406e-17 5.00972e-16 -0.0899755 -5.85724e-17 4.8169e-16 -0.0852339 -7.61285e-17 4.30909e-16 -0.080233 -8.00265e-17 3.87189e-16 -0.0749729 -9.26486e-17 3.4195e-16 -0.0694535 -9.85887e-17 2.79772e-16 -0.0636748 -9.64969e-17 2.4453e-16 -0.0576369 -9.36033e-17 1.94588e-16 -0.0513397 -9.30182e-17 1.76289e-16 -0.0447832 -8.47253e-17 1.33842e-16 -0.0379675 -7.53031e-17 1.05378e-16 -0.0308925 -5.96271e-17 5.26035e-17 -0.0235583 -4.3802e-17 3.45963e-17 -0.0159648 -2.36248e-17 1.50672e-17 -0.00811203 0 0 0 3.4519e-16 3.4519e-16 -0.137772 3.01492e-16 4.75417e-16 -0.135595 2.52159e-16 5.66387e-16 -0.133251 2.23879e-16 6.62961e-16 -0.130742 2.01846e-16 7.07386e-16 -0.128066 1.57645e-16 7.71731e-16 -0.125225 1.25291e-16 7.45798e-16 -0.122218 1.01367e-16 8.18955e-16 -0.119044 7.35153e-17 7.72791e-16 -0.115705 4.38564e-17 7.54346e-16 -0.1122 3.76743e-17 6.95896e-16 -0.108529 8.08607e-18 6.29529e-16 -0.104692 -9.17594e-18 6.80732e-16 -0.100689 -1.77803e-17 6.635e-16 -0.0965201 -3.51872e-17 6.03206e-16 -0.0921852 -4.16134e-17 5.83996e-16 -0.0876759 -5.25511e-17 4.98764e-16 -0.0829402 -5.94454e-17 4.50513e-16 -0.0779696 -6.21181e-17 3.80483e-16 -0.0727641 -6.64385e-17 3.39124e-16 -0.0673237 -7.14125e-17 3.1891e-16 -0.0616485 -7.20756e-17 2.78775e-16 -0.0557382 -6.94062e-17 1.95267e-16 -0.0495931 -6.47197e-17 1.78083e-16 -0.0432131 -5.99264e-17 1.46476e-16 -0.0365982 -5.45094e-17 9.05769e-17 -0.0297484 -4.47872e-17 6.7296e-17 -0.0226636 -3.1588e-17 3.65097e-17 -0.015344 -1.71763e-17 1.81725e-17 -0.00778945 0 0 0 1.85438e-16 1.85438e-16 -0.136099 1.56543e-16 3.42901e-16 -0.133832 1.44536e-16 4.88283e-16 -0.131404 1.19555e-16 5.88395e-16 -0.128815 9.71519e-17 6.53246e-16 -0.126065 8.59532e-17 7.04212e-16 -0.123154 6.25596e-17 7.19788e-16 -0.120082 4.93855e-17 7.35447e-16 -0.116849 3.61608e-17 7.58934e-16 -0.113455 2.68723e-17 7.24097e-16 -0.1099 1.52163e-17 7.37161e-16 -0.106184 1.23547e-17 6.80002e-16 -0.102307 -1.717e-18 6.83669e-16 -0.0982697 -1.00678e-17 6.072e-16 -0.0940709 -1.74123e-17 5.90212e-16 -0.0897112 -1.87157e-17 5.40136e-16 -0.0851846 -2.1226e-17 4.62514e-16 -0.0804553 -2.94899e-17 4.43845e-16 -0.0755176 -3.35435e-17 3.75076e-16 -0.0703713 -3.54508e-17 3.35113e-16 -0.0650165 -3.66086e-17 2.58587e-16 -0.0594532 -3.68614e-17 2.26357e-16 -0.0536814 -3.22718e-17 2.24859e-16 -0.047701 -3.1205e-17 1.65765e-16 -0.0415122 -2.97109e-17 1.2632e-16 -0.0351148 -2.57332e-17 9.20965e-17 -0.0285089 -2.04842e-17 5.67264e-17 -0.0216944 -1.50647e-17 2.97578e-17 -0.0146715 -7.74679e-18 7.15784e-18 -0.00744 0 0 0 0 0 -0.134296 0 2.25234e-16 -0.131933 0 3.90977e-16 -0.129414 0 5.34352e-16 -0.126739 0 6.44076e-16 -0.123909 0 6.99457e-16 -0.120923 0 7.7557e-16 -0.117782 0 8.06676e-16 -0.114485 0 8.28802e-16 -0.111032 0 7.66193e-16 -0.107423 0 8.25831e-16 -0.103659 0 7.62142e-16 -0.0997397 0 7.22375e-16 -0.0956644 0 7.0126e-16 -0.0914334 0 7.11038e-16 -0.0870469 0 5.88318e-16 -0.0825016 0 5.64029e-16 -0.0777794 0 5.36696e-16 -0.072877 0 4.37367e-16 -0.0677945 0 4.32152e-16 -0.0625319 0 3.463e-16 -0.0570891 0 3.03138e-16 -0.0514663 0 2.61377e-16 -0.0456634 0 2.09277e-16 -0.0396804 0 1