<?xml version="1.0"?> 
<VTKFile type="StructuredGrid" version="0.1"> 
<StructuredGrid WholeExtent="0 29 0 29 0 29"> 
<Piece Extent="0 29 0 29 0 29"> 
<PointData>
<DataArray type="Float32" Name="efield" format="ascii" NumberOfComponents="3"> 
0 0 52.9363 0 -1.48023e-16 51.33 0 1.34054e-16 49.6967 0 2.43424e-16 48.0364 0 -1.10718e-15 46.3492 0 -8.06822e-16 44.6351 0 -3.67771e-16 42.8939 0 -3.35392e-16 41.1258 0 -3.05819e-16 39.3307 0 0 37.5087 0 -5.07309e-16 35.6597 0 -4.60985e-16 33.7837 0 -8.3589e-16 31.8808 0 -1.13345e-15 29.9508 0 -6.80557e-16 27.994 0 -9.15378e-16 26.0156 0 -1.08994e-15 24.0485 0 -9.68688e-16 22.0981 0 -8.55845e-16 20.1645 0 -7.50641e-16 18.2476 0 -6.52389e-16 16.3475 0 -5.60486e-16 14.4641 0 -7.11592e-16 12.5975 0 -3.93637e-16 10.7476 0 -4.76679e-16 8.91448 0 -3.69688e-16 7.09809 0 -2.68967e-16 5.29845 0 -1.16035e-16 3.51555 0 -8.45236e-17 1.7494 0 0 0 -1.28084e-16 -1.28084e-16 54.1469 -1.65755e-16 -5.33182e-16 52.5833 -9.00833e-17 -6.29058e-16 50.9861 -1.92772e-16 -9.07417e-16 49.3555 -1.18899e-16 -1.00411e-15 47.6915 -8.63714e-17 -4.77993e-16 45.9939 -9.37826e-17 -1.20572e-15 44.2628 -9.32286e-17 -1.10251e-15 42.4983 -7.36886e-17 -1.31539e-15 40.7002 -8.68555e-17 -1.78957e-15 38.8687 -4.20882e-17 -1.61003e-15 37.0037 -8.59815e-17 -1.48609e-15 35.1052 -4.42122e-17 -1.332e-15 33.1733 -8.21652e-17 -1.2216e-15 31.2078 -5.84504e-17 -1.4508e-15 29.2089 -8.56981e-17 -1.95412e-15 27.1821 -9.96722e-17 -1.46596e-15 25.1618 -5.28859e-17 -1.03635e-15 23.1536 -8.83707e-17 -1.15268e-15 21.1575 -9.36203e-17 -8.16217e-16 19.1735 -4.46656e-17 -1.3896e-15 17.2017 -5.9154e-17 -9.02045e-16 15.2419 -3.80619e-17 -1.01236e-15 13.2943 -3.54514e-17 -1.0497e-15 11.3588 -3.08164e-17 -8.48103e-16 9.43535 -3.62538e-17 -7.90539e-16 7.52405 -1.86589e-17 -3.83632e-16 5.62487 -1.27725e-17 -2.48356e-16 3.7378 -8.02763e-18 -2.10901e-16 1.86284 0 0 0 0 0 55.271 0 0 53.747 -2.20918e-16 -3.33816e-16 52.1835 -8.70844e-17 -3.29153e-16 50.5804 -6.04757e-17 -5.17973e-16 48.9378 -6.11808e-17 -4.75361e-16 47.2556 -6.13874e-17 -4.36222e-16 45.5339 2.13694e-17 7.36086e-16 43.7727 -6.05075e-17 -3.6667e-16 41.9719 7.55223e-18 -9.01914e-16 40.1316 -2.74456e-17 -5.66017e-16 38.2518 2.77433e-17 -9.9111e-16 36.3324 2.22616e-17 -9.03066e-16 34.3735 -2.27038e-16 -1.00206e-16 32.375 -8.65743e-17 -1.15704e-15 30.337 -1.32586e-16 -5.15058e-17 28.2654 -1.50462e-16 -3.55374e-16 26.1956 -7.8848e-17 -8.30241e-16 24.1337 -4.77538e-17 -9.63699e-16 22.0796 -1.17418e-16 -6.59873e-16 20.0333 -1.29123e-16 -7.61377e-16 17.9948 -1.14979e-16 -3.41503e-16 15.9642 -1.03801e-16 -5.5425e-16 13.9413 -6.20392e-17 -4.54011e-16 11.9263 -3.49622e-17 -7.20091e-16 9.91902 -8.05674e-17 -2.91075e-16 7.91959 -2.10513e-17 -3.06365e-16 5.92798 -2.39563e-17 -1.99798e-16 3.94417 -1.69133e-17 -9.76289e-17 1.96818 0 0 0 0 0 56.3087 1.20353e-17 -6.81233e-17 54.8213 -1.86011e-16 -4.53613e-16 53.2887 -1.84017e-16 -4.17551e-16 51.7111 -1.05992e-16 -8.10742e-16 50.0882 -7.37454e-17 -9.43716e-16 48.4203 -2.06097e-16 -1.43932e-16 46.7073 -2.8007e-16 -9.3228e-16 44.9491 -1.65902e-16 -1.47292e-15 43.1458 -3.39422e-17 -9.59999e-16 41.2974 7.75839e-18 -1.14111e-15 39.4038 -2.51898e-16 -6.56638e-16 37.4651 -1.65023e-16 -1.03434e-15 35.4813 -3.12081e-16 -1.01198e-15 33.4524 -1.56109e-16 -8.50495e-16 31.3783 -2.82471e-16 -8.22474e-16 29.2653 -1.62343e-16 -1.32309e-15 27.1499 -1.34928e-16 -6.12026e-16 25.0384 -1.06997e-16 -1.28064e-15 22.9308 -1.3931e-16 -9.21353e-16 20.827 -1.61089e-16 -6.22685e-16 18.727 -1.94168e-16 -7.14397e-16 16.6308 -1.52911e-16 -3.21138e-16 14.5386 -1.50094e-16 -5.02704e-16 12.4501 -1.26787e-16 -4.05999e-16 10.3655 -7.78843e-17 -4.55478e-16 8.2847 -4.93824e-17 -2.23207e-16 6.20777 -5.97788e-17 -2.18602e-16 4.13467 -3.03026e-17 -1.06154e-16 2.06542 0 0 0 -7.01203e-16 -7.01203e-16 57.2599 -6.58157e-16 -7.82174e-16 55.806 -3.93008e-16 -6.46196e-16 54.3019 -5.81165e-16 -8.97112e-16 52.7475 -9.26994e-16 -1.48821e-15 51.1428 -4.45098e-16 -1.25252e-15 49.488 -4.82388e-16 -9.78058e-16 47.7828 -9.04136e-16 -1.00654e-15 46.0274 -7.3141e-16 -1.53967e-15 44.2218 -5.29652e-16 -1.30287e-15 42.366 -5.67394e-16 -1.82097e-15 40.4598 -6.08987e-16 -1.42929e-15 38.5035 -6.38289e-16 -1.08569e-15 36.4969 -5.06124e-16 -7.09238e-16 34.44 -4.79394e-16 -6.41159e-16 32.3329 -5.05931e-16 -9.67757e-16 30.1819 -4.75399e-16 -8.67426e-16 28.0247 -4.43698e-16 -7.73203e-16 25.8678 -4.03913e-16 -1.20112e-15 23.711 -4.19575e-16 -1.30352e-15 21.5545 -2.56122e-16 -8.90773e-16 19.3981 -3.08597e-16 -7.94108e-16 17.242 -2.73904e-16 -6.73578e-16 15.086 -2.4201e-16 -8.04533e-16 12.9303 -1.83599e-16 -7.43401e-16 10.7747 -1.28613e-16 -4.95489e-16 8.61939 -1.27231e-16 -3.68655e-16 6.46424 -1.08356e-16 -3.1693e-16 4.30929 -4.36385e-17 -1.16077e-16 2.15455 0 0 0 -4.5711e-16 -4.5711e-16 58.1247 -3.93128e-16 -6.19825e-16 56.7012 -1.50619e-16 -4.37935e-16 55.2229 -7.67483e-16 -1.07419e-15 53.6897 -5.73377e-16 -7.23699e-16 52.1016 -5.98801e-16 -1.40609e-15 50.4585 -5.3958e-16 -1.48195e-15 48.7606 -3.88179e-16 -1.07114e-15 47.0078 -3.82657e-16 -9.91185e-16 45.2 -6.67897e-16 -2.11181e-15 43.3374 -3.86473e-16 -1.47029e-15 41.4199 -4.75092e-16 -1.68946e-15 39.4474 -3.71172e-16 -1.23847e-15 37.4201 -5.08777e-16 -1.21287e-15 35.3378 -6.59873e-16 -1.6155e-15 33.2007 -6.61741e-16 -1.8578e-15 31.0151 -4.3614e-16 -8.95466e-16 28.82 -4.77508e-16 -1.44303e-15 26.6217 -2.7574e-16 -6.64985e-16 24.4203 -4.15024e-16 -1.13242e-15 22.2158 -2.094e-16 -9.19399e-16 20.0082 -2.49536e-16 -1.17694e-15 17.7975 -3.32733e-16 -8.89124e-16 15.5837 -2.90228e-16 -7.40878e-16 13.3668 -2.1824e-16 -6.94291e-16 11.1468 -2.5508e-16 -5.65521e-16 8.92365 -1.36149e-16 -3.94726e-16 6.6974 -1.31006e-16 -2.67511e-16 4.46804 -5.61841e-17 -1.64589e-16 2.23558 0 0 0 0 0 58.9029 0 0 57.5069 -4.34047e-16 -3.95171e-16 56.0518 -3.87033e-16 -4.78916e-16 54.5377 -4.15804e-16 -3.47177e-16 52.9644 -3.39014e-16 -5.12239e-16 51.3321 -3.32435e-16 -4.77599e-16 49.6406 5.72766e-17 -1.61796e-16 47.8901 -8.953e-16 -1.38946e-15 46.0804 -5.1468e-16 -1.04399e-15 44.2117 9.09455e-17 -2.56904e-16 42.2839 -6.53149e-16 -4.16113e-16 40.297 -2.33887e-16 -4.08787e-16 38.251 -2.94723e-16 -1.74592e-16 36.1459 -6.40197e-16 -1.02221e-15 33.9817 -5.47094e-16 -1.09137e-15 31.7651 -5.16468e-16 -9.84269e-16 29.5357 -4.84145e-16 -8.82754e-16 27.3002 -3.653e-16 -1.02644e-15 25.0587 -4.90246e-16 -4.82266e-16 22.8111 -3.12025e-16 -7.95285e-16 20.5574 -2.82792e-16 -6.88251e-16 18.2976 -3.85126e-16 -6.43145e-16 16.0317 -2.51758e-16 -7.6925e-16 13.7597 -3.43696e-16 -5.67734e-16 11.4816 -2.25581e-16 -5.90859e-16 9.19748 -1.33995e-16 -3.56648e-16 6.90724 -1.16891e-16 -2.81021e-16 4.61092 -5.94108e-17 -1.37073e-16 2.3085 0 0 0 -4.41142e-16 -4.41142e-16 59.5947 -4.09433e-16 -4.77421e-16 58.2231 -3.56608e-16 -5.63183e-16 56.7887 -3.74923e-16 -4.76496e-16 55.2914 -6.9628e-16 -9.94054e-16 53.7314 -1.70602e-16 -8.7899e-16 52.1085 -3.17389e-16 -4.79426e-16 50.4228 -3.10594e-16 -4.48131e-16 48.6743 -2.41405e-16 -5.65736e-16 46.863 0 0 44.9889 -5.89422e-16 -1.71769e-15 43.0519 -4.50118e-16 -9.02826e-16 41.0521 -2.55805e-16 -1.26327e-15 38.9896 -5.44636e-16 -1.34381e-15 36.8642 -5.23286e-16 -1.22792e-15 34.6759 -4.99069e-16 -1.11616e-15 32.4317 -4.65678e-16 -1.74228e-15 30.1719 -4.44591e-16 -2.48874e-16 27.9034 -4.14665e-16 -8.11546e-16 25.6261 -5.79757e-16 -1.34061e-15 23.3402 -3.63385e-16 -1.09109e-15 21.0455 -1.80843e-16 -8.72348e-16 18.742 -2.80126e-16 -4.67596e-16 16.4298 -1.94763e-16 -5.07764e-16 14.1089 -1.65633e-16 -4.1334e-16 11.7793 -1.49077e-16 -5.05377e-16 9.44089 -1.14722e-16 -3.70574e-16 7.09377 -1.1657e-16 -2.57151e-16 4.73791 -4.00728e-17 -1.18142e-16 2.37332 0 0 0 0 0 60.2 -4.28624e-16 -4.13195e-16 58.8497 -2.63543e-17 5.49663e-17 57.4334 -5.60551e-16 -6.35824e-17 55.951 -7.61303e-16 -7.99563e-16 54.4025 -4.79452e-16 -1.5354e-16 52.7879 -3.82795e-16 -3.13809e-16 51.1073 -7.4243e-16 -5.91015e-16 49.3605 -7.17796e-16 -5.55262e-16 47.5478 -5.39242e-16 1.43166e-16 45.6689 -6.6428e-16 -4.86089e-16 43.7239 -4.28194e-16 4.08648e-18 41.7129 -9.08006e-16 -6.29653e-16 39.6358 -5.73906e-16 -3.8761e-16 37.4926 -5.41204e-16 -3.56095e-16 35.2834 -1.03502e-15 -1.29994e-15 33.0149 -9.4605e-16 -5.91094e-16 30.7286 -9.68848e-16 -9.32169e-16 28.4311 -5.48103e-16 -4.77649e-16 26.1227 -6.85392e-16 -5.3112e-16 23.8031 -7.41824e-16 -6.53959e-16 21.4726 -6.63552e-16 -5.68558e-16 19.1309 -6.47901e-16 -6.94505e-16 16.7782 -4.47894e-16 -5.24019e-16 14.4145 -3.76491e-16 -4.27291e-16 12.0397 -3.03694e-16 -3.34497e-16 9.65387 -2.2958e-16 -2.45496e-16 7.25698 -1.50853e-16 -7.08142e-17 4.84904 -6.92396e-17 -9.59466e-17 2.43004 0 0 0 0 0 60.7189 0 0 59.3869 2.90707e-17 -5.32381e-17 57.986 -4.61808e-16 -2.73157e-16 56.5163 -6.94539e-16 -8.95376e-16 54.9777 -4.75538e-17 8.70868e-17 53.3703 -2.88457e-16 -4.81701e-16 51.6939 -2.82882e-16 -4.53484e-16 49.9487 -3.53493e-16 -2.84714e-16 48.1347 -3.40557e-16 -2.67932e-16 46.2518 -3.26951e-16 -2.51382e-16 44.3 -3.12691e-16 -2.35053e-16 42.2793 -4.81887e-16 -6.46087e-16 40.1897 -1.02455e-15 -1.0035e-15 38.0313 -4.36594e-16 -5.49807e-16 35.8041 -1.07292e-15 -1.1783e-15 33.5149 -8.51052e-16 -7.71908e-16 31.2057 -6.48006e-16 -9.6031e-16 28.8835 -6.65022e-16 -7.4635e-16 26.5482 -7.90329e-16 -7.80257e-16 24.2 -5.52919e-16 -5.88048e-16 21.8386 -3.49614e-16 -4.24627e-16 19.4643 -5.26807e-16 -5.84958e-16 17.0769 -4.70819e-16 -7.28391e-16 14.6764 -3.56407e-16 -4.49521e-16 12.2629 -2.87684e-16 -3.53012e-16 9.83643 -2.47241e-16 -2.05654e-16 7.39687 -1.28652e-16 -1.14775e-16 4.94429 -7.37065e-17 -8.35081e-17 2.47866 0 0 0 0 0 61.1512 1.69129e-17 -2.74513e-17 59.8345 0 0 58.4465 -4.02454e-16 -3.74259e-16 56.9874 -1.12333e-15 -1.16252e-15 55.4571 -7.13495e-16 -7.65986e-16 53.8556 -6.95032e-16 -7.27488e-16 52.1828 -7.20448e-16 -6.15806e-16 50.4389 -8.74425e-16 -1.14994e-15 48.6238 -8.47375e-16 -1.08247e-15 46.7375 -8.17931e-16 -1.01611e-15 44.78 -7.86182e-16 -9.50769e-16 42.7513 -7.52206e-16 -8.86364e-16 40.6514 -9.35569e-16 -1.12827e-15 38.4803 -5.72361e-16 -9.3135e-16 36.238 -5.41585e-16 -8.54406e-16 33.9315 -5.09337e-16 -7.79899e-16 31.6033 -8.72947e-16 -1.54347e-15 29.2605 -7.58751e-16 -1.02544e-15 26.9029 -5.19529e-16 -7.94932e-16 24.5306 -3.6853e-16 -5.0538e-16 22.1437 -4.24927e-16 -6.15518e-16 19.742 -5.8413e-16 -7.61425e-16 17.3257 -5.42867e-16 -8.24773e-16 14.8947 -3.06257e-16 -5.16144e-16 12.449 -2.03265e-16 -4.78889e-16 9.98856 -2.96226e-16 -3.66555e-16 7.51345 -1.26747e-16 -1.96869e-16 5.02366 -7.68354e-17 -1.1629e-16 2.51918 0 0 0 -4.23066e-16 -4.23066e-16 61.4971 4.24558e-16 3.94111e-16 60.1926 -3.89935e-16 -4.16453e-16 58.815 -7.95849e-16 -7.52169e-16 57.3643 -7.16052e-16 -8.082e-16 55.8406 -1.02013e-15 -1.19825e-15 54.2438 -1.30765e-15 -1.54708e-15 52.5739 -6.60052e-16 -6.99335e-16 50.831 -9.3481e-16 -1.02857e-15 49.0151 -1.18851e-15 -1.31776e-15 47.1261 -5.51705e-16 -6.50004e-16 45.164 -7.56896e-16 -9.69041e-16 43.1288 -1.01063e-15 -1.14223e-15 41.0206 -1.50316e-15 -1.50534e-15 38.8394 -8.49973e-16 -1.06969e-15 36.5851 -1.0916e-15 -1.0988e-15 34.2648 -9.71258e-16 -1.07703e-15 31.9214 -1.22856e-15 -1.42428e-15 29.562 -1.02124e-15 -1.03318e-15 27.1866 -9.67322e-16 -8.78356e-16 24.7952 -7.52935e-16 -9.56792e-16 22.3877 -8.12983e-16 -9.41289e-16 19.9643 -8.68564e-16 -1.12065e-15 17.5248 -5.12671e-16 -6.13797e-16 15.0693 -5.1719e-16 -5.66717e-16 12.5978 -4.36947e-16 -5.67501e-16 10.1103 -2.95551e-16 -3.579e-16 7.60672 -1.98265e-16 -2.35619e-16 5.08716 -1.1148e-16 -1.36573e-16 2.55159 0 0 0 -4.20797e-16 -4.20797e-16 61.7565 -4.12462e-16 -4.06692e-16 60.4611 -3.85119e-16 -4.16317e-16 59.0913 -1.14696e-15 -1.17938e-15 57.647 -7.34724e-16 -7.69613e-16 56.1282 -7.45192e-16 -6.98716e-16 54.535 -2.76159e-16 -4.45065e-16 52.8673 -6.45125e-16 -7.08782e-16 51.1251 -9.10367e-16 -1.04383e-15 49.3085 -6.00418e-16 -6.40125e-16 47.4175 -5.33415e-16 -6.61311e-16 45.452 -5.11194e-16 -6.22733e-16 43.412 -7.68305e-16 -8.28626e-16 41.2976 -5.30672e-16 -4.57892e-16 39.1087 -6.86835e-16 -7.20562e-16 36.8454 -5.87242e-16 -7.39959e-16 34.5148 -5.48757e-16 -6.80018e-16 32.16 -5.09575e-16 -6.21336e-16 29.7882 -4.69745e-16 -5.63857e-16 27.3994 -8.02026e-16 -7.33546e-16 24.9936 -7.23525e-16 -6.54757e-16 22.5708 -4.81441e-16 -5.06213e-16 20.1309 -5.40706e-16 -5.3272e-16 17.6741 -4.44215e-16 -4.79347e-16 15.2003 -3.71553e-16 -3.95749e-16 12.7094 -3.52648e-16 -3.83294e-16 10.2015 -1.83479e-16 -1.814e-16 7.67667 -1.7758e-16 -1.88092e-16 5.13478 -8.9082e-17 -9.31739e-17 2.5759 0 0 0 -4.19308e-16 -4.19308e-16 61.9295 -8.46205e-16 -7.82998e-16 60.6402 -5.85256e-17 6.83781e-17 59.2755 -8.53292e-16 -6.75806e-16 57.8354 -1.58528e-15 -1.38915e-15 56.3199 -1.18374e-15 -9.67249e-16 54.7291 -1.15795e-15 -9.14155e-16 53.0628 -1.11481e-15 -8.78859e-16 51.3212 -1.07044e-15 -8.42573e-16 49.5042 -1.31731e-15 -1.13123e-15 47.6118 -9.32346e-16 -8.20604e-16 45.644 -1.19772e-15 -1.0204e-15 43.6008 -1.37022e-15 -1.26163e-15 41.4823 -1.07141e-15 -9.05595e-16 39.2883 -9.72666e-16 -8.85487e-16 37.019 -8.78317e-16 -8.57874e-16 34.6815 -7.89176e-16 -8.24204e-16 32.3191 -9.24771e-16 -9.30615e-16 29.939 -6.70272e-16 -6.88815e-16 27.5413 -1.03835e-15 -1.12392e-15 25.1259 -6.78926e-16 -7.06137e-16 22.6928 -5.89221e-16 -6.41595e-16 20.2421 -8.05614e-16 -9.1685e-16 17.7736 -4.21582e-16 -5.00706e-16 15.2876 -4.78748e-16 -5.96915e-16 12.7838 -2.54148e-16 -3.62306e-16 10.2624 -2.50712e-16 -2.99041e-16 7.7233 -2.18841e-16 -2.69279e-16 5.16653 -9.34714e-17 -1.19918e-16 2.5921 0 0 0 -4.18571e-16 -4.18571e-16 62.016 -4.24864e-16 -3.89877e-16 60.7297 -4.33843e-16 -3.57493e-16 59.3676 -4.30205e-16 -3.37551e-16 57.9296 -1.17959e-15 -1.05576e-15 56.4158 -1.51161e-15 -1.37043e-15 54.8261 -1.12347e-15 -9.59972e-16 53.1606 -7.64993e-16 -5.69133e-16 51.4192 -1.0568e-15 -8.65921e-16 49.602 -1.32062e-15 -1.13366e-15 47.7089 -6.89963e-16 -4.77127e-16 45.74 -9.35988e-16 -7.30017e-16 43.6952 -1.16215e-15 -9.41102e-16 41.5746 -8.61059e-16 -6.229e-16 39.3781 -7.96737e-16 -5.94585e-16 37.1057 -9.617e-16 -7.68422e-16 34.7648 -7.15271e-16 -4.84925e-16 32.3986 -1.02155e-15 -8.25479e-16 30.0144 -6.12382e-16 -3.98778e-16 27.6122 -7.11199e-16 -5.1359e-16 25.192 -9.10441e-16 -7.42205e-16 22.7538 -8.15347e-16 -6.50221e-16 20.2976 -8.13879e-16 -6.79943e-16 17.8234 -6.95973e-16 -5.8169e-16 15.3312 -6.56477e-16 -5.57923e-16 12.821 -4.73107e-16 -3.74286e-16 10.2928 -4.38689e-16 -3.77439e-16 7.74661 -2.91815e-16 -2.50995e-16 5.18241 -1.4648e-16 -1.24229e-16 2.60021 0 0 0 -4.18571e-16 -4.18571e-16 62.016 -8.37607e-16 -7.94786e-16 60.7297 -8.29114e-16 -7.59304e-16 59.3676 -4.34519e-16 -3.38118e-16 57.9296 -1.57054e-15 -1.41812e-15 56.4158 -8.06509e-16 -6.40621e-16 54.8261 -7.83075e-16 -6.13091e-16 53.1606 -1.10571e-15 -9.08166e-16 51.4192 -7.39125e-16 -5.50838e-16 49.602 -1.64342e-15 -1.43584e-15 47.7089 -9.96405e-16 -7.68363e-16 45.74 -1.24166e-15 -9.93189e-16 43.6952 -1.17097e-15 -9.43855e-16 41.5746 -1.37431e-15 -1.11588e-15 39.3781 -5.6905e-16 -3.67191e-16 37.1057 -7.5781e-16 -5.48919e-16 34.7648 -6.99637e-16 -5.11369e-16 32.3986 -8.37765e-16 -6.48788e-16 30.0144 -5.97854e-16 -4.23328e-16 27.6122 -1.01426e-15 -8.35203e-16 25.192 -6.28499e-16 -4.79996e-16 22.7538 -5.64288e-16 -4.19343e-16 20.2976 -8.11824e-16 -6.88638e-16 17.8234 -6.09597e-16 -4.91131e-16 15.3312 -5.05535e-16 -4.09649e-16 12.821 -4.65593e-16 -3.86398e-16 10.2928 -3.97631e-16 -3.30945e-16 7.74661 -2.63849e-16 -2.207e-16 5.18241 -1.30366e-16 -1.11268e-16 2.60021 0 0 0 -4.19308e-16 -4.19308e-16 61.9295 -7.82998e-16 -8.46205e-16 60.6402 6.83781e-17 -5.85256e-17 59.2755 -6.75806e-16 -8.53292e-16 57.8354 -1.38915e-15 -1.58528e-15 56.3199 -9.67249e-16 -1.18374e-15 54.7291 -9.14155e-16 -1.15795e-15 53.0628 -8.78859e-16 -1.11481e-15 51.3212 -8.42573e-16 -1.07044e-15 49.5042 -1.13123e-15 -1.31731e-15 47.6118 -8.20604e-16 -9.32346e-16 45.644 -1.0204e-15 -1.19772e-15 43.6008 -1.26163e-15 -1.37022e-15 41.4823 -9.05595e-16 -1.07141e-15 39.2883 -8.85487e-16 -9.72666e-16 37.019 -8.57874e-16 -8.78317e-16 34.6815 -8.24204e-16 -7.89176e-16 32.3191 -9.30615e-16 -9.24771e-16 29.939 -6.88815e-16 -6.70272e-16 27.5413 -1.12392e-15 -1.03835e-15 25.1259 -7.06137e-16 -6.78926e-16 22.6928 -6.41595e-16 -5.89221e-16 20.2421 -9.1685e-16 -8.05614e-16 17.7736 -5.00706e-16 -4.21582e-16 15.2876 -5.96915e-16 -4.78748e-16 12.7838 -3.62306e-16 -2.54148e-16 10.2624 -2.99041e-16 -2.50712e-16 7.7233 -2.69279e-16 -2.18841e-16 5.16653 -1.19918e-16 -9.34714e-17 2.5921 0 0 0 -4.20797e-16 -4.20797e-16 61.7565 3.80448e-17 -2.92938e-17 60.4611 4.40124e-16 3.66788e-16 59.0913 -7.34128e-16 -8.04776e-16 57.647 -1.04965e-15 -1.18276e-15 56.1282 -6.59439e-16 -7.75435e-16 54.535 -6.69486e-16 -7.22211e-16 52.8673 -5.71234e-16 -7.51034e-16 51.1251 -9.15417e-16 -1.00924e-15 49.3085 -7.5078e-16 -1.06187e-15 47.4175 -1.63778e-16 -3.95201e-16 45.452 -7.79365e-16 -8.85935e-16 43.412 -6.85603e-16 -8.78431e-16 41.2976 -1.14473e-15 -1.32668e-15 39.1087 -8.53413e-16 -9.98428e-16 36.8454 -7.90775e-16 -9.33781e-16 34.5148 -6.62178e-16 -9.19948e-16 32.16 -7.7455e-16 -1.05026e-15 29.7882 -7.05503e-16 -9.63284e-16 27.3994 -4.52028e-16 -7.45422e-16 24.9936 -6.12283e-16 -7.56229e-16 22.5708 -7.22293e-16 -7.50672e-16 20.1309 -7.20377e-16 -7.7657e-16 17.6741 -3.99102e-16 -5.06003e-16 15.2003 -3.51965e-16 -4.05266e-16 12.7094 -3.32456e-16 -4.99755e-16 10.2015 -1.69662e-16 -2.73305e-16 7.67667 -1.80629e-16 -2.37061e-16 5.13478 -1.10596e-16 -1.29275e-16 2.5759 0 0 0 -4.23066e-16 -4.23066e-16 61.4971 3.94111e-16 4.24558e-16 60.1926 -4.16453e-16 -3.89935e-16 58.815 -7.52169e-16 -7.95849e-16 57.3643 -8.082e-16 -7.16052e-16 55.8406 -1.19825e-15 -1.02013e-15 54.2438 -7.35361e-16 -6.80181e-16 52.5739 -3.1399e-16 -3.54659e-16 50.831 -1.02857e-15 -9.3481e-16 49.0151 -9.10806e-16 -9.449e-16 47.1261 -2.6738e-16 -3.15637e-16 45.164 -9.69041e-16 -7.56896e-16 43.1288 -8.07336e-16 -7.92035e-16 41.0206 -1.19389e-15 -1.29444e-15 38.8394 -5.76463e-16 -3.96251e-16 36.5851 -6.441e-16 -6.65439e-16 34.2648 -6.6e-16 -5.73241e-16 31.9214 -9.19589e-16 -9.45038e-16 29.562 -1.03318e-15 -1.02124e-15 27.1866 -8.78356e-16 -9.67322e-16 24.7952 -9.56792e-16 -7.52935e-16 22.3877 -5.85071e-16 -6.40962e-16 19.9643 -8.78899e-16 -6.70522e-16 17.5248 -3.54065e-16 -3.79846e-16 15.0693 -5.66717e-16 -5.1719e-16 12.5978 -3.99041e-16 -3.46065e-16 10.1103 -2.95576e-16 -2.6106e-16 7.60672 -2.35619e-16 -1.98265e-16 5.08716 -1.16344e-16 -9.97247e-17 2.55159 0 0 0 0 0 61.1512 -2.74513e-17 1.69129e-17 59.8345 0 0 58.4465 -3.74259e-16 -4.02454e-16 56.9874 -7.14851e-16 -7.85952e-16 55.4571 -7.65986e-16 -7.13495e-16 53.8556 -7.27488e-16 -6.95032e-16 52.1828 -6.15806e-16 -7.20448e-16 50.4389 -1.14994e-15 -8.74425e-16 48.6238 -1.08247e-15 -8.47375e-16 46.7375 -1.01611e-15 -8.17931e-16 44.78 -9.50769e-16 -7.86182e-16 42.7513 -8.86364e-16 -7.52206e-16 40.6514 -8.22836e-16 -7.16073e-16 38.4803 -9.3135e-16 -5.72361e-16 36.238 -8.54406e-16 -5.41585e-16 33.9315 -7.79899e-16 -5.09337e-16 31.6033 -1.26494e-15 -7.40573e-16 29.2605 -1.02544e-15 -7.58751e-16 26.9029 -7.94932e-16 -5.19529e-16 24.5306 -5.0538e-16 -3.6853e-16 22.1437 -4.42074e-16 -3.30749e-16 19.742 -6.12142e-16 -5.00562e-16 17.3257 -6.29443e-16 -3.62921e-16 14.8947 -5.16144e-16 -3.06257e-16 12.449 -3.61356e-16 -1.76016e-16 9.98856 -2.46561e-16 -2.20994e-16 7.51345 -1.39996e-16 -1.12179e-16 5.02366 -1.1629e-16 -7.68354e-17 2.51918 0 0 0 -4.30143e-16 -4.30143e-16 60.7189 -4.38976e-16 -4.07919e-16 59.3869 -5.32381e-17 2.90707e-17 57.986 -8.45162e-16 -7.6043e-16 56.5163 -1.34306e-15 -1.04181e-15 54.9777 -8.47412e-16 -6.81073e-16 53.3703 -6.38073e-16 -7.54561e-16 51.6939 -9.06969e-16 -5.65764e-16 49.9487 -1.27818e-15 -8.28931e-16 48.1347 -6.67291e-16 -6.09348e-16 46.2518 -1.99605e-15 -1.69536e-15 44.3 -1.1659e-15 -1.12753e-15 42.2793 -1.3029e-15 -1.37526e-15 40.1897 -1.19489e-15 -9.20038e-16 38.0313 -1.08747e-15 -5.11414e-16 35.8041 -1.33783e-15 -9.85811e-16 33.5149 -9.16532e-16 -7.7208e-16 31.2057 -9.72144e-16 -9.34639e-16 28.8835 -1.00265e-15 -1.06135e-15 26.5482 -9.98671e-16 -9.14341e-16 24.2 -1.06519e-15 -7.29387e-16 21.8386 -6.81143e-16 -5.97198e-16 19.4643 -8.7361e-16 -7.07678e-16 17.0769 -6.13544e-16 -5.33531e-16 14.6764 -5.01877e-16 -4.48193e-16 12.2629 -5.5008e-16 -4.68342e-16 9.83643 -4.0501e-16 -3.54105e-16 7.39687 -1.89926e-16 -1.83277e-16 4.94429 -1.57296e-16 -1.28859e-16 2.47866 0 0 0 -4.351e-16 -4.351e-16 60.2 -8.55815e-16 -8.43141e-16 58.8497 5.49663e-17 -2.63543e-17 57.4334 -5.37916e-16 -9.24163e-16 55.951 -1.24729e-15 -1.11896e-15 54.4025 -6.6514e-16 -7.87227e-16 52.7879 -7.946e-16 -6.85529e-16 51.1073 -5.91015e-16 -7.4243e-16 49.3605 -9.7764e-16 -1.00729e-15 47.5478 -2.51424e-16 -8.2065e-16 45.6689 -4.86089e-16 -6.6428e-16 43.7239 -6.78882e-16 -9.53206e-16 41.7129 -6.29653e-16 -9.08006e-16 39.6358 -3.8761e-16 -5.73906e-16 37.4926 -3.56095e-16 -5.41204e-16 35.2834 -1.29994e-15 -1.03502e-15 33.0149 -5.91094e-16 -9.4605e-16 30.7286 -9.32169e-16 -9.68848e-16 28.4311 -4.77649e-16 -5.48103e-16 26.1227 -5.3112e-16 -6.85392e-16 23.8031 -6.53959e-16 -7.41824e-16 21.4726 -5.68558e-16 -6.63552e-16 19.1309 -6.94505e-16 -6.47901e-16 16.7782 -5.24019e-16 -4.47894e-16 14.4145 -4.27291e-16 -3.76491e-16 12.0397 -3.34497e-16 -3.03694e-16 9.65387 -2.45496e-16 -2.2958e-16 7.25698 -7.08142e-17 -1.50853e-16 4.84904 -9.59466e-17 -6.92396e-17 2.43004 0 0 0 -4.41142e-16 -4.41142e-16 59.5947 -5.07795e-16 -3.96808e-16 58.2231 -5.66265e-17 2.35369e-17 56.7887 -8.47402e-16 -7.93735e-16 55.2914 -9.94054e-16 -6.9628e-16 53.7314 -1.53625e-15 -9.69324e-16 52.1085 -9.58853e-16 -6.34778e-16 50.4228 -1.21413e-15 -4.89067e-16 48.6743 -1.40188e-15 -8.46968e-16 46.863 -1.05222e-15 -4.74146e-16 44.9889 -1.22965e-15 -3.57818e-16 43.0519 -9.02826e-16 -4.50118e-16 41.0521 -1.24832e-15 -6.52464e-16 38.9896 -1.52813e-15 -8.35753e-16 36.8642 -1.04733e-15 -5.98351e-16 34.6759 -1.10518e-15 -8.24635e-16 32.4317 -1.59374e-15 -5.27421e-16 30.1719 -6.4075e-16 -5.55726e-16 27.9034 -1.16181e-15 -5.19739e-16 25.6261 -1.34061e-15 -5.79757e-16 23.3402 -9.90272e-16 -6.09514e-16 21.0455 -7.10001e-16 -2.48323e-16 18.742 -6.69786e-16 -3.54246e-16 16.4298 -8.46273e-16 -3.24605e-16 14.1089 -5.93733e-16 -3.1561e-16 11.7793 -5.05377e-16 -1.49077e-16 9.44089 -3.63885e-16 -2.51878e-16 7.09377 -2.88283e-16 -1.93012e-16 4.73791 -1.25684e-16 -5.92328e-17 2.37332 0 0 0 -4.48416e-16 -4.48416e-16 58.9029 -4.83667e-16 -4.19583e-16 57.5069 -5.11619e-16 -3.92824e-16 56.0518 -1.06615e-15 -7.35719e-16 54.5377 -6.94353e-16 -8.31608e-16 52.9644 -5.12239e-16 -3.39014e-16 51.3321 -4.77599e-16 -3.32435e-16 49.6406 -2.82816e-16 -3.82068e-16 47.8901 -5.632e-16 -2.63015e-16 46.0804 -1.56599e-15 -7.7202e-16 44.2117 -7.08339e-16 -5.92056e-16 42.2839 -6.52984e-16 -5.69295e-16 40.297 -5.9981e-16 -5.44864e-16 38.251 -5.4868e-16 -5.18823e-16 36.1459 -1.04547e-15 -2.97942e-16 33.9817 -9.47883e-16 -2.8674e-16 31.7651 -5.56622e-16 -3.79556e-16 29.5357 -7.6754e-16 -2.59383e-16 27.3002 -4.44317e-16 -3.28487e-16 25.0587 -6.95081e-16 -4.14908e-16 22.8111 -5.3019e-16 -2.08017e-16 20.5574 -6.88251e-16 -2.82792e-16 18.2976 -7.81966e-16 -3.35982e-16 16.0317 -6.5289e-16 -2.92951e-16 13.7597 -3.97566e-16 -1.86065e-16 11.4816 -6.36156e-16 -1.22596e-16 9.19748 -4.11231e-16 -1.14672e-16 6.90724 -3.87991e-16 -7.9023e-17 4.61092 -1.48111e-16 -3.39165e-17 2.3085 0 0 0 -2.28555e-16 -2.28555e-16 58.1247 -3.42139e-16 -1.8709e-16 56.7012 -2.39055e-16 7.0275e-17 55.2229 -5.92541e-16 -3.67442e-16 53.6897 -7.23699e-16 -5.73377e-16 52.1016 -1.40609e-15 -5.98801e-16 50.4585 -1.15575e-15 -3.91668e-16 48.7606 -4.66479e-16 -9.72231e-17 47.0078 -9.91185e-16 -3.82657e-16 45.2 -1.71302e-15 -5.70345e-16 43.3374 -1.47029e-15 -3.86473e-16 41.4199 -1.68946e-15 -4.75092e-16 39.4474 -1.23847e-15 -3.71172e-16 37.4201 -1.21287e-15 -5.08777e-16 35.3378 -1.46675e-15 -3.79378e-16 33.2007 -1.32656e-15 -3.64956e-16 31.0151 -8.95466e-16 -4.3614e-16 28.82 -1.06904e-15 -3.29816e-16 26.6217 -6.64985e-16 -2.7574e-16 24.4203 -1.13242e-15 -4.15024e-16 22.2158 -9.19399e-16 -2.094e-16 20.0082 -9.55873e-16 -1.44374e-16 17.7975 -7.26322e-16 -3.06328e-16 15.5837 -6.05014e-16 -2.66665e-16 13.3668 -6.94291e-16 -2.1824e-16 11.1468 -3.93623e-16 -2.21348e-16 8.92365 -3.31903e-16 -1.23093e-16 6.6974 -1.85855e-16 -1.13081e-16 4.46804 -1.24778e-16 -4.69736e-17 2.23558 0 0 0 -2.33734e-16 -2.33734e-16 57.2599 -2.82819e-16 -2.14193e-16 55.806 -4.45608e-16 -1.67711e-16 54.3019 -3.39926e-16 7.98914e-17 52.7475 -1.35424e-15 -4.47775e-16 51.1428 -1.25252e-15 -4.45098e-16 49.488 -1.48359e-15 -6.00993e-16 47.7828 -4.66869e-16 -1.18413e-16 46.0274 -1.59836e-15 -2.80309e-16 44.2218 -1.07567e-15 -1.65119e-16 42.366 -1.24922e-15 -1.04548e-16 40.4598 -1.66854e-15 -5.52757e-16 38.5035 -8.28828e-16 -1.62586e-16 36.4969 -1.50983e-15 -3.17964e-16 34.44 -1.50777e-15 -5.90759e-16 32.3329 -2.01795e-15 -4.05785e-16 30.1819 -1.75813e-15 -2.6606e-16 28.0247 -1.5718e-15 -2.56007e-16 25.8678 -1.15907e-15 -2.99428e-16 23.711 -1.02099e-15 -2.78565e-16 21.5545 -1.28951e-15 -2.55504e-16 19.3981 -9.53295e-16 -2.71184e-16 17.242 -1.08095e-15 -1.78161e-16 15.086 -7.69308e-16 -1.27119e-16 12.9303 -7.29556e-16 -1.35665e-16 10.7747 -6.60652e-16 -1.71484e-16 8.61939 -4.67084e-16 -7.35441e-17 6.46424 -3.85867e-16 -9.21541e-17 4.30929 -1.51926e-16 -4.53445e-17 2.15455 0 0 0 -2.39908e-16 -2.39908e-16 56.3087 -3.56789e-16 -2.11287e-16 54.8213 -4.53613e-16 -1.86011e-16 53.2887 -4.17551e-16 -1.84017e-16 51.7111 -8.10742e-16 -1.05992e-16 50.0882 -9.43716e-16 -7.37454e-17 48.4203 -1.43932e-16 -2.06097e-16 46.7073 -1.39842e-15 -4.20105e-16 44.9491 -1.47292e-15 -1.65902e-16 43.1458 -9.59999e-16 -3.39422e-17 41.2974 -8.80606e-16 -3.82656e-17 39.4038 -5.67123e-16 -8.37597e-17 37.4651 -5.17169e-16 -8.25113e-17 35.4813 -1.01198e-15 -3.12081e-16 33.4524 -8.50495e-16 -1.56109e-16 31.3783 -7.65815e-16 -1.49889e-16 29.2653 -1.32309e-15 -1.62343e-16 27.1499 -6.12026e-16 -1.34928e-16 25.0384 -7.75878e-16 -8.50901e-17 22.9308 -6.82997e-16 -8.07253e-17 20.827 -6.22685e-16 -1.61089e-16 18.727 -3.79773e-16 -1.73191e-16 16.6308 -3.21138e-16 -1.52911e-16 14.5386 -5.02704e-16 -1.50094e-16 12.4501 -4.05999e-16 -1.26787e-16 10.3655 -6.04497e-16 -9.11455e-17 8.2847 -3.31907e-16 -5.97839e-17 6.20777 -2.8911e-16 -6.7002e-17 4.13467 -1.40468e-16 -3.40517e-17 2.06542 0 0 0 -1.23645e-16 -1.23645e-16 55.271 -1.12696e-16 -1.20954e-16 53.747 -4.36582e-16 -3.38971e-16 52.1835 -9.37083e-17 -1.14961e-16 50.5804 -5.17973e-16 -6.04757e-17 48.9378 -5.53117e-16 -1.69438e-16 47.2556 -1.01383e-15 -3.32107e-16 45.5339 6.71941e-16 -7.95578e-17 43.7727 -4.24735e-16 -1.57554e-16 41.9719 -9.54325e-16 -8.54768e-17 40.1316 -6.13161e-16 -1.16326e-16 38.2518 -1.03335e-15 -5.686e-17 36.3324 -9.4073e-16 -5.79405e-17 34.3735 -6.68038e-17 -1.51359e-16 32.375 -1.21591e-15 -2.2865e-16 30.337 -4.49902e-16 -2.93442e-16 28.2654 -4.00117e-16 -2.73524e-16 26.1956 -8.30241e-16 -7.8848e-17 24.1337 -9.96613e-16 -1.51761e-16 22.0796 -6.73765e-16 -1.6466e-16 20.0333 -5.85495e-16 -1.49947e-16 17.9948 -6.64046e-16 -1.54497e-16 15.9642 -5.6186e-16 -1.36785e-16 13.9413 -6.81016e-16 -9.30588e-17 11.9263 -9.03485e-16 -6.13366e-17 9.91902 -2.91075e-16 -8.05674e-17 7.91959 -3.08526e-16 -3.51267e-17 5.92798 -2.01065e-16 -3.33287e-17 3.94417 -9.76289e-17 -1.69133e-17 1.96818 0 0 0 -1.28084e-16 -1.28084e-16 54.1469 -4.03418e-16 -1.0764e-16 52.5833 -2.62285e-16 1.56574e-17 50.9861 -2.86732e-16 -4.46184e-17 49.3555 -1.22314e-15 -1.05824e-16 47.6915 -4.00969e-16 2.39362e-17 45.9939 -1.24044e-15 -1.46963e-16 44.2628 -1.47001e-15 -1.24305e-16 42.4983 -1.65125e-15 -1.04377e-16 40.7002 -1.78957e-15 -8.68555e-17 38.8687 -1.63238e-15 -8.68209e-17 37.0037 -1.46626e-15 -4.34917e-17 35.1052 -1.75848e-15 -1.87527e-17 33.1733 -1.63905e-15 -1.3479e-16 31.2078 -1.47759e-15 -1.2938e-16 29.2089 -1.29116e-15 -2.40982e-17 27.1821 -1.16482e-15 -5.52542e-17 25.1618 -1.31231e-15 -1.22476e-16 23.1536 -6.87354e-16 -3.75584e-17 21.1575 -8.16217e-16 -9.36203e-17 19.1735 -1.73459e-15 -4.53406e-17 17.2017 -8.98192e-16 -4.05502e-17 15.2419 -1.01236e-15 -3.80619e-17 13.2943 -8.40677e-16 -3.3913e-17 11.3588 -6.80816e-16 -4.08028e-17 9.43535 -7.88244e-16 -1.78473e-17 7.52405 -2.8881e-16 -2.43193e-17 5.62487 -2.48751e-16 -1.73486e-17 3.7378 -1.80662e-16 -5.25109e-18 1.86284 0 0 0 0 0 52.9363 -1.48023e-16 0 51.33 1.34054e-16 -0 49.6967 2.43424e-16 -0 48.0364 -1.10718e-15 0 46.3492 -8.06822e-16 0 44.6351 -3.67771e-16 0 42.8939 -3.35392e-16 0 41.1258 -3.05819e-16 0 39.3307 0 0 37.5087 -5.07309e-16 0 35.6597 -4.60985e-16 0 33.7837 -8.3589e-16 0 31.8808 -1.13345e-15 0 29.9508 -6.80557e-16 0 27.994 -9.15378e-16 0 26.0156 -1.08994e-15 0 24.0485 -9.68688e-16 0 22.0981 -8.55845e-16 0 20.1645 -7.50641e-16 0 18.2476 -6.52389e-16 0 16.3475 -5.60486e-16 0 14.4641 -7.11592e-16 0 12.5975 -3.93637e-16 0 10.7476 -4.76679e-16 0 8.91448 -3.69688e-16 0 7.09809 -2.68967e-16 0 5.29845 -1.16035e-16 0 3.51555 -8.45236e-17 0 1.7494 0 0 0 0.0676261 0.00214202 52.9125 0.0682803 0.000112183 51.3072 0.0689344 -0.00146735 49.675 0.0695886 -0.00268131 48.0158 0.0702428 -0.00359504 46.3296 0.0708969 -0.00425973 44.6164 0.0715511 -0.00471606 42.8763 0.0722053 -0.00499677 41.1092 0.0728595 -0.0051285 39.3152 0.0735136 -0.00513314 37.4941 0.0741678 -0.00502886 35.6462 0.074822 -0.00483086 33.7712 0.0754761 -0.00455196 31.8693 0.0761303 -0.00420302 29.9404 0.0767845 -0.00379334 27.9846 0.0766174 -0.00359905 26.0072 0.075629 -0.00362065 24.0411 0.0746406 -0.00359148 22.0917 0.0736522 -0.00351419 20.159 0.0726639 -0.00339114 18.2429 0.0716755 -0.00322436 16.3435 0.0706871 -0.0030157 14.4608 0.0696987 -0.00276675 12.5948 0.0687103 -0.00247896 10.7455 0.067722 -0.00215362 8.91288 0.0667336 -0.00179186 7.09693 0.0657452 -0.00139474 5.29767 0.0647568 -0.000963169 3.51509 0.0637684 -0.000498003 1.7492 0.0627801 0 0 0.0653066 0.00433864 54.1225 0.0662278 0.00285925 52.5598 0.0671258 0.00172773 50.9637 0.0680043 0.000881181 49.3341 0.0688664 0.00027021 47.671 0.0697144 -0.000144518 45.9744 0.0705502 -0.000394711 44.2444 0.0713752 -0.000506211 42.4808 0.0721909 -0.00050029 40.6838 0.0729981 -0.000394616 38.8534 0.073798 -0.000203982 36.9894 0.074591 5.91305e-05 35.092 0.075378 0.000384121 33.1611 0.0761595 0.000761927 31.1967 0.0769359 0.