<?xml version="1.0"?> 
<VTKFile type="StructuredGrid" version="0.1"> 
<StructuredGrid WholeExtent="0 29 0 29 0 29"> 
<Piece Extent="0 29 0 29 0 29"> 
<PointData>
<DataArray type="Float32" Name="efield" format="ascii" NumberOfComponents="3"> 
0 0 -0.0171893 0 0 -0.0158833 0 0 -0.0146705 0 0 -0.013551 0 0 -0.0125249 0 0 -0.011592 0 0 -0.0107524 0 0 -0.010006 0 0 -0.00935301 0 0 -0.00879328 0 0 -0.00832683 0 0 -0.00795367 0 0 -0.0076738 0 0 -0.00748722 0 0 -0.00739393 0 0 -0.00739393 0 0 -0.00748722 0 0 -0.0076738 0 0 -0.00795367 0 0 -0.00832683 0 0 -0.00879328 0 0 -0.00935301 0 0 -0.010006 0 0 -0.0107524 0 0 -0.011592 0 0 -0.0125249 0 0 -0.013551 0 0 -0.0146705 0 0 -0.0158833 0 0 -0.0171893 0 0 -0.0158833 0 0 -0.01452 0 0 -0.013254 0 0 -0.0120855 0 0 -0.0110143 0 0 -0.0100405 0 0 -0.00916405 0 0 -0.00838501 0 0 -0.00770335 0 0 -0.00711907 0 0 -0.00663217 0 0 -0.00624265 0 0 -0.0059505 0 0 -0.00575574 0 0 -0.00565836 0 0 -0.00565836 0 0 -0.00575574 0 0 -0.0059505 0 0 -0.00624265 0 0 -0.00663217 0 0 -0.00711907 0 0 -0.00770335 0 0 -0.00838501 0 0 -0.00916405 0 0 -0.0100405 0 0 -0.0110143 0 0 -0.0120855 0 0 -0.013254 0 0 -0.01452 0 0 -0.0158833 0 0 -0.0146705 0 0 -0.013254 0 0 -0.0119387 0 0 -0.0107246 0 0 -0.00961159 0 0 -0.0085998 0 0 -0.00768919 0 0 -0.00687977 0 0 -0.00617152 0 0 -0.00556444 0 0 -0.00505855 0 0 -0.00465384 0 0 -0.0043503 0 0 -0.00414794 0 0 -0.00404677 0 0 -0.00404677 0 0 -0.00414794 0 0 -0.0043503 0 0 -0.00465384 0 0 -0.00505855 0 0 -0.00556444 0 0 -0.00617152 0 0 -0.00687977 0 0 -0.00768919 0 0 -0.0085998 0 0 -0.00961159 0 0 -0.0107246 0 0 -0.0119387 0 0 -0.013254 0 0 -0.0146705 0 0 -0.013551 0 0 -0.0120855 0 0 -0.0107246 0 0 -0.00946833 0 0 -0.0083168 0 0 -0.00726995 0 0 -0.00632779 0 0 -0.00549031 0 0 -0.00475752 0 0 -0.00412941 0 0 -0.00360598 0 0 -0.00318724 0 0 -0.00287319 0 0 -0.00266382 0 0 -0.00255914 0 0 -0.00255914 0 0 -0.00266382 0 0 -0.00287319 0 0 -0.00318724 0 0 -0.00360598 0 0 -0.00412941 0 0 -0.00475752 0 0 -0.00549031 0 0 -0.00632779 0 0 -0.00726995 0 0 -0.0083168 0 0 -0.00946833 0 0 -0.0107246 0 0 -0.0120855 0 0 -0.013551 0 0 -0.0125249 0 0 -0.0110143 0 0 -0.00961159 0 0 -0.0083168 0 0 -0.00712991 0 0 -0.00605092 0 0 -0.00507983 0 0 -0.00421664 0 0 -0.00346135 0 0 -0.00281396 0 0 -0.00227446 0 0 -0.00184287 0 0 -0.00151917 0 0 -0.00130337 0 0 -0.00119547 0 0 -0.00119547 0 0 -0.00130337 0 0 -0.00151917 0 0 -0.00184287 0 0 -0.00227446 0 0 -0.00281396 0 0 -0.00346135 0 0 -0.00421664 0 0 -0.00507983 0 0 -0.00605092 0 0 -0.00712991 0 0 -0.0083168 0 0 -0.00961159 0 0 -0.0110143 0 0 -0.0125249 0 0 -0.011592 0 0 -0.0100405 0 0 -0.0085998 0 0 -0.00726995 0 0 -0.00605092 0 0 -0.00494272 0 0 -0.00394533 0 0 -0.00305876 0 0 -0.00228302 0 0 -0.00161809 0 0 -0.00106399 0 0 -0.000620708 0 0 -0.000288246 0 0 -6.66043e-05 0 0 4.42165e-05 0 0 4.42165e-05 0 0 -6.66043e-05 0 0 -0.000288246 0 0 -0.000620708 0 0 -0.00106399 0 0 -0.00161809 0 0 -0.00228302 0 0 -0.00305876 0 0 -0.00394533 0 0 -0.00494272 0 0 -0.00605092 0 0 -0.00726995 0 0 -0.0085998 0 0 -0.0100405 0 0 -0.011592 0 0 -0.0107524 0 0 -0.00916405 0 0 -0.00768919 0 0 -0.00632779 0 0 -0.00507983 0 0 -0.00394533 0 0 -0.00292428 0 0 -0.00201667 0 0 -0.00122252 0 0 -0.000541818 0 0 2.54345e-05 0 0 0.000479236 0 0 0.000819588 0 0 0.00104649 0 0 0.00115994 0 0 0.00115994 0 0 0.00104649 0 0 0.000819588 0 0 0.000479236 0 0 2.54345e-05 0 0 -0.000541818 0 0 -0.00122252 0 0 -0.00201667 0 0 -0.00292428 0 0 -0.00394533 0 0 -0.00507983 0 0 -0.00632779 0 0 -0.00768919 0 0 -0.00916405 0 0 -0.0107524 0 0 -0.010006 0 0 -0.00838501 0 0 -0.00687977 0 0 -0.00549031 0 0 -0.00421664 0 0 -0.00305876 0 0 -0.00201667 0 0 -0.00109037 0 0 -0.000279854 0 0 0.000414873 0 0 0.000993813 0 0 0.00145696 0 0 0.00180433 0 0 0.0020359 0 0 0.00215169 0 0 0.00215169 0 0 0.0020359 0 0 0.00180433 0 0 0.00145696 0 0 0.000993813 0 0 0.000414873 0 0 -0.000279854 0 0 -0.00109037 0 0 -0.00201667 0 0 -0.00305876 0 0 -0.00421664 0 0 -0.00549031 0 0 -0.00687977 0 0 -0.00838501 0 0 -0.010006 0 0 -0.00935301 0 0 -0.00770335 0 0 -0.00617152 0 0 -0.00475752 0 0 -0.00346135 0 0 -0.00228302 0 0 -0.00122252 0 0 -0.000279854 0 0 0.000544978 0 0 0.00125198 0 0 0.00184114 0 0 0.00231248 0 0 0.00266598 0 0 0.00290164 0 0 0.00301948 0 0 0.00301948 0 0 0.00290164 0 0 0.00266598 0 0 0.00231248 0 0 0.00184114 0 0 0.00125198 0 0 0.000544978 0 0 -0.000279854 0 0 -0.00122252 0 0 -0.00228302 0 0 -0.00346135 0 0 -0.00475752 0 0 -0.00617152 0 0 -0.00770335 0 0 -0.00935301 0 0 -0.00879328 0 0 -0.00711907 0 0 -0.00556444 0 0 -0.00412941 0 0 -0.00281396 0 0 -0.00161809 0 0 -0.000541818 0 0 0.000414873 0 0 0.00125198 0 0 0.0019695 0 0 0.00256743 0 0 0.00304577 0 0 0.00340453 0 0 0.0036437 0 0 0.00376329 0 0 0.00376329 0 0 0.0036437 0 0 0.00340453 0 0 0.00304577 0 0 0.00256743 0 0 0.0019695 0 0 0.00125198 0 0 0.000414873 0 0 -0.000541818 0 0 -0.00161809 0 0 -0.00281396 0 0 -0.00412941 0 0 -0.00556444 0 0 -0.00711907 0 0 -0.00879328 0 0 -0.00832683 0 0 -0.00663217 0 0 -0.00505855 0 0 -0.00360598 0 0 -0.00227446 0 0 -0.00106399 0 0 2.54345e-05 0 0 0.000993813 0 0 0.00184114 0 0 0.00256743 0 0 0.00317266 0 0 0.00365685 0 0 0.00401999 0 0 0.00426209 0 0 0.00438314 0 0 0.00438314 0 0 0.00426209 0 0 0.00401999 0 0 0.00365685 0 0 0.00317266 0 0 0.00256743 0 0 0.00184114 0 0 0.000993813 0 0 2.54345e-05 0 0 -0.00106399 0 0 -0.00227446 0 0 -0.00360598 0 0 -0.00505855 0 0 -0.00663217 0 0 -0.00832683 0 0 -0.00795367 0 0 -0.00624265 0 0 -0.00465384 0 0 -0.00318724 0 0 -0.00184287 0 0 -0.000620708 0 0 0.000479236 0 0 0.00145696 0 0 0.00231248 0 0 0.00304577 0 0 0.00365685 0 0 0.00414572 0 0 0.00451237 0 0 0.0047568 0 0 0.00487901 0 0 0.00487901 0 0 0.0047568 0 0 0.00451237 0 0 0.00414572 0 0 0.00365685 0 0 0.00304577 0 0 0.00231248 0 0 0.00145696 0 0 0.000479236 0 0 -0.000620708 0 0 -0.00184287 0 0 -0.00318724 0 0 -0.00465384 0 0 -0.00624265 0 0 -0.00795367 0 0 -0.0076738 0 0 -0.0059505 0 0 -0.0043503 0 0 -0.00287319 0 0 -0.00151917 0 0 -0.000288246 0 0 0.000819588 0 0 0.00180433 0 0 0.00266598 0 0 0.00340453 0 0 0.00401999 0 0 0.00451237 0 0 0.00488164 0 0 0.00512783 0 0 0.00525092 0 0 0.00525092 0 0 0.00512783 0 0 0.00488164 0 0 0.00451237 0 0 0.00401999 0 0 0.00340453 0 0 0.00266598 0 0 0.00180433 0 0 0.000819588 0 0 -0.000288246 0 0 -0.00151917 0 0 -0.00287319 0 0 -0.0043503 0 0 -0.0059505 0 0 -0.0076738 0 0 -0.00748722 0 0 -0.00575574 0 0 -0.00414794 0 0 -0.00266382 0 0 -0.00130337 0 0 -6.66043e-05 0 0 0.00104649 0 0 0.0020359 0 0 0.00290164 0 0 0.0036437 0 0 0.00426209 0 0 0.0047568 0 0 0.00512783 0 0 0.00537518 0 0 0.00549886 0 0 0.00549886 0 0 0.00537518 0 0 0.00512783 0 0 0.0047568 0 0 0.00426209 0 0 0.0036437 0 0 0.00290164 0 0 0.0020359 0 0 0.00104649 0 0 -6.66043e-05 0 0 -0.00130337 0 0 -0.00266382 0 0 -0.00414794 0 0 -0.00575574 0 0 -0.00748722 0 0 -0.00739393 0 0 -0.00565836 0 0 -0.00404677 0 0 -0.00255914 0 0 -0.00119547 0 0 4.42165e-05 0 0 0.00115994 0 0 0.00215169 0 0 0.00301948 0 0 0.00376329 0 0 0.00438314 0 0 0.00487901 0 0 0.00525092 0 0 0.00549886 0 0 0.00562283 0 0 0.00562283 0 0 0.00549886 0 0 0.00525092 0 0 0.00487901 0 0 0.00438314 0 0 0.00376329 0 0 0.00301948 0 0 0.00215169 0 0 0.00115994 0 0 4.42165e-05 0 0 -0.00119547 0 0 -0.00255914 0 0 -0.00404677 0 0 -0.00565836 0 0 -0.00739393 0 0 -0.00739393 0 0 -0.00565836 0 0 -0.00404677 0 0 -0.00255914 0 0 -0.00119547 0 0 4.42165e-05 0 0 0.00115994 0 0 0.00215169 0 0 0.00301948 0 0 0.00376329 0 0 0.00438314 0 0 0.00487901 0 0 0.00525092 0 0 0.00549886 0 0 0.00562283 0 0 0.00562283 0 0 0.00549886 0 0 0.00525092 0 0 0.00487901 0 0 0.00438314 0 0 0.00376329 0 0 0.00301948 0 0 0.00215169 0 0 0.00115994 0 0 4.42165e-05 0 0 -0.00119547 0 0 -0.00255914 0 0 -0.00404677 0 0 -0.00565836 0 0 -0.00739393 0 0 -0.00748722 0 0 -0.00575574 0 0 -0.00414794 0 0 -0.00266382 0 0 -0.00130337 0 0 -6.66043e-05 0 0 0.00104649 0 0 0.0020359 0 0 0.00290164 0 0 0.0036437 0 0 0.00426209 0 0 0.0047568 0 0 0.00512783 0 0 0.00537518 0 0 0.00549886 0 0 0.00549886 0 0 0.00537518 0 0 0.00512783 0 0 0.0047568 0 0 0.00426209 0 0 0.0036437 0 0 0.00290164 0 0 0.0020359 0 0 0.00104649 0 0 -6.66043e-05 0 0 -0.00130337 0 0 -0.00266382 0 0 -0.00414794 0 0 -0.00575574 0 0 -0.00748722 0 0 -0.0076738 0 0 -0.0059505 0 0 -0.0043503 0 0 -0.00287319 0 0 -0.00151917 0 0 -0.000288246 0 0 0.000819588 0 0 0.00180433 0 0 0.00266598 0 0 0.00340453 0 0 0.00401999 0 0 0.00451237 0 0 0.00488164 0 0 0.00512783 0 0 0.00525092 0 0 0.00525092 0 0 0.00512783 0 0 0.00488164 0 0 0.00451237 0 0 0.00401999 0 0 0.00340453 0 0 0.00266598 0 0 0.00180433 0 0 0.000819588 0 0 -0.000288246 0 0 -0.00151917 0 0 -0.00287319 0 0 -0.0043503 0 0 -0.0059505 0 0 -0.0076738 0 0 -0.00795367 0 0 -0.00624265 0 0 -0.00465384 0 0 -0.00318724 0 0 -0.00184287 0 0 -0.000620708 0 0 0.000479236 0 0 0.00145696 0 0 0.00231248 0 0 0.00304577 0 0 0.00365685 0 0 0.00414572 0 0 0.00451237 0 0 0.0047568 0 0 0.00487901 0 0 0.00487901 0 0 0.0047568 0 0 0.00451237 0 0 0.00414572 0 0 0.00365685 0 0 0.00304577 0 0 0.00231248 0 0 0.00145696 0 0 0.000479236 0 0 -0.000620708 0 0 -0.00184287 0 0 -0.00318724 0 0 -0.00465384 0 0 -0.00624265 0 0 -0.00795367 0 0 -0.00832683 0 0 -0.00663217 0 0 -0.00505855 0 0 -0.00360598 0 0 -0.00227446 0 0 -0.00106399 0 0 2.54345e-05 0 0 0.000993813 0 0 0.00184114 0 0 0.00256743 0 0 0.00317266 0 0 0.00365685 0 0 0.00401999 0 0 0.00426209 0 0 0.00438314 0 0 0.00438314 0 0 0.00426209 0 0 0.00401999 0 0 0.00365685 0 0 0.00317266 0 0 0.00256743 0 0 0.00184114 0 0 0.000993813 0 0 2.54345e-05 0 0 -0.00106399 0 0 -0.00227446 0 0 -0.00360598 0 0 -0.00505855 0 0 -0.00663217 0 0 -0.00832683 0 0 -0.00879328 0 0 -0.00711907 0 0 -0.00556444 0 0 -0.00412941 0 0 -0.00281396 0 0 -0.00161809 0 0 -0.000541818 0 0 0.000414873 0 0 0.00125198 0 0 0.0019695 0 0 0.00256743 0 0 0.00304577 0 0 0.00340453 0 0 0.0036437 0 0 0.00376329 0 0 0.00376329 0 0 0.0036437 0 0 0.00340453 0 0 0.00304577 0 0 0.00256743 0 0 0.0019695 0 0 0.00125198 0 0 0.000414873 0 0 -0.000541818 0 0 -0.00161809 0 0 -0.00281396 0 0 -0.00412941 0 0 -0.00556444 0 0 -0.00711907 0 0 -0.00879328 0 0 -0.00935301 0 0 -0.00770335 0 0 -0.00617152 0 0 -0.00475752 0 0 -0.00346135 0 0 -0.00228302 0 0 -0.00122252 0 0 -0.000279854 0 0 0.000544978 0 0 0.00125198 0 0 0.00184114 0 0 0.00231248 0 0 0.00266598 0 0 0.00290164 0 0 0.00301948 0 0 0.00301948 0 0 0.00290164 0 0 0.00266598 0 0 0.00231248 0 0 0.00184114 0 0 0.00125198 0 0 0.000544978 0 0 -0.000279854 0 0 -0.00122252 0 0 -0.00228302 0 0 -0.00346135 0 0 -0.00475752 0 0 -0.00617152 0 0 -0.00770335 0 0 -0.00935301 0 0 -0.010006 0 0 -0.00838501 0 0 -0.00687977 0 0 -0.00549031 0 0 -0.00421664 0 0 -0.00305876 0 0 -0.00201667 0 0 -0.00109037 0 0 -0.000279854 0 0 0.000414873 0 0 0.000993813 0 0 0.00145696 0 0 0.00180433 0 0 0.0020359 0 0 0.00215169 0 0 0.00215169 0 0 0.0020359 0 0 0.00180433 0 0 0.00145696 0 0 0.000993813 0 0 0.000414873 0 0 -0.000279854 0 0 -0.00109037 0 0 -0.00201667 0 0 -0.00305876 0 0 -0.00421664 0 0 -0.00549031 0 0 -0.00687977 0 0 -0.00838501 0 0 -0.010006 0 0 -0.0107524 0 0 -0.00916405 0 0 -0.00768919 0 0 -0.00632779 0 0 -0.00507983 0 0 -0.00394533 0 0 -0.00292428 0 0 -0.00201667 0 0 -0.00122252 0 0 -0.000541818 0 0 2.54345e-05 0 0 0.000479236 0 0 0.000819588 0 0 0.00104649 0 0 0.00115994 0 0 0.00115994 0 0 0.00104649 0 0 0.000819588 0 0 0.000479236 0 0 2.54345e-05 0 0 -0.000541818 0 0 -0.00122252 0 0 -0.00201667 0 0 -0.00292428 0 0 -0.00394533 0 0 -0.00507983 0 0 -0.00632779 0 0 -0.00768919 0 0 -0.00916405 0 0 -0.0107524 0 0 -0.011592 0 0 -0.0100405 0 0 -0.0085998 0 0 -0.00726995 0 0 -0.00605092 0 0 -0.00494272 0 0 -0.00394533 0 0 -0.00305876 0 0 -0.00228302 0 0 -0.00161809 0 0 -0.00106399 0 0 -0.000620708 0 0 -0.000288246 0 0 -6.66043e-05 0 0 4.42165e-05 0 0 4.42165e-05 0 0 -6.66043e-05 0 0 -0.000288246 0 0 -0.000620708 0 0 -0.00106399 0 0 -0.00161809 0 0 -0.00228302 0 0 -0.00305876 0 0 -0.00394533 0 0 -0.00494272 0 0 -0.00605092 0 0 -0.00726995 0 0 -0.0085998 0 0 -0.0100405 0 0 -0.011592 0 0 -0.0125249 0 0 -0.0110143 0 0 -0.00961159 0 0 -0.0083168 0 0 -0.00712991 0 0 -0.00605092 0 0 -0.00507983 0 0 -0.00421664 0 0 -0.00346135 0 0 -0.00281396 0 0 -0.00227446 0 0 -0.00184287 0 0 -0.00151917 0 0 -0.00130337 0 0 -0.00119547 0 0 -0.00119547 0 0 -0.00130337 0 0 -0.00151917 0 0 -0.00184287 0 0 -0.00227446 0 0 -0.00281396 0 0 -0.00346135 0 0 -0.00421664 0 0 -0.00507983 0 0 -0.00605092 0 0 -0.00712991 0 0 -0.0083168 0 0 -0.00961159 0 0 -0.0110143 0 0 -0.0125249 0 0 -0.013551 0 0 -0.0120855 0 0 -0.0107246 0 0 -0.00946833 0 0 -0.0083168 0 0 -0.00726995 0 0 -0.00632779 0 0 -0.00549031 0 0 -0.00475752 0 0 -0.00412941 0 0 -0.00360598 0 0 -0.00318724 0 0 -0.00287319 0 0 -0.00266382 0 0 -0.00255914 0 0 -0.00255914 0 0 -0.00266382 0 0 -0.00287319 0 0 -0.00318724 0 0 -0.00360598 0 0 -0.00412941 0 0 -0.00475752 0 0 -0.00549031 0 0 -0.00632779 0 0 -0.00726995 0 0 -0.0083168 0 0 -0.00946833 0 0 -0.0107246 0 0 -0.0120855 0 0 -0.013551 0 0 -0.0146705 0 0 -0.013254 0 0 -0.0119387 0 0 -0.0107246 0 0 -0.00961159 0 0 -0.0085998 0 0 -0.00768919 0 0 -0.00687977 0 0 -0.00617152 0 0 -0.00556444 0 0 -0.00505855 0 0 -0.00465384 0 0 -0.0043503 0 0 -0.00414794 0 0 -0.00404677 0 0 -0.00404677 0 0 -0.00414794 0 0 -0.0043503 0 0 -0.00465384 0 0 -0.00505855 0 0 -0.00556444 0 0 -0.00617152 0 0 -0.00687977 0 0 -0.00768919 0 0 -0.0085998 0 0 -0.00961159 0 0 -0.0107246 0 0 -0.0119387 0 0 -0.013254 0 0 -0.0146705 0 0 -0.0158833 0 0 -0.01452 0 0 -0.013254 0 0 -0.0120855 0 0 -0.0110143 0 0 -0.0100405 0 0 -0.00916405 0 0 -0.00838501 0 0 -0.00770335 0 0 -0.00711907 0 0 -0.00663217 0 0 -0.00624265 0 0 -0.0059505 0 0 -0.00575574 0 0 -0.00565836 0 0 -0.00565836 0 0 -0.00575574 0 0 -0.0059505 0 0 -0.00624265 0 0 -0.00663217 0 0 -0.00711907 0 0 -0.00770335 0 0 -0.00838501 0 0 -0.00916405 0 0 -0.0100405 0 0 -0.0110143 0 0 -0.0120855 0 0 -0.013254 0 0 -0.01452 0 0 -0.0158833 0 0 -0.0171893 0 0 -0.0158833 0 0 -0.0146705 0 0 -0.013551 0 0 -0.0125249 0 0 -0.011592 0 0 -0.0107524 0 0 -0.010006 0 0 -0.00935301 0 0 -0.00879328 0 0 -0.00832683 0 0 -0.00795367 0 0 -0.0076738 0 0 -0.00748722 0 0 -0.00739393 0 0 -0.00739393 0 0 -0.00748722 0 0 -0.0076738 0 0 -0.00795367 0 0 -0.00832683 0 0 -0.00879328 0 0 -0.00935301 0 0 -0.010006 0 0 -0.0107524 0 0 -0.011592 0 0 -0.0125249 0 0 -0.013551 0 0 -0.0146705 0 0 -0.0158833 0 0 -0.0171893 -1.59681e-15 0.0107172 -0.0198636 -0.000588267 0.0105664 -0.0188686 -0.00116091 0.0103999 -0.0179448 -0.00171793 0.0102178 -0.017092 -0.00225934 0.0100201 -0.0163103 -0.00278512 0.00980675 -0.0155996 -0.00329527 0.00957779 -0.01496 -0.00378981 0.0093332 -0.0143915 -0.00426872 0.009073 -0.0138941 -0.00473201 0.00879717 -0.0134677 -0.00517968 0.00850572 -0.0131123 -0.00561173 0.00819865 -0.0128281 -0.00602815 0.00787595 -0.0126149 -0.00642896 0.00753764 -0.0124728 -0.00681414 0.0071837 -0.0124017 -0.0071837 0.00681414 -0.0124017 -0.00753764 0.00642896 -0.0124728 -0.00787595 0.00602815 -0.0126149 -0.00819865 0.00561173 -0.0128281 -0.00850572 0.00517968 -0.0131123 -0.00879717 0.00473201 -0.0134677 -0.009073 0.00426872 -0.0138941 -0.0093332 0.00378981 -0.0143915 -0.00957779 0.00329527 -0.01496 -0.00980675 0.00278512 -0.0155996 -0.0100201 0.00225934 -0.0163103 -0.0102178 0.00171793 -0.017092 -0.0103999 0.00116091 -0.0179448 -0.0105664 0.000588267 -0.0188686 -0.0107172 1.36078e-14 -0.0198636 0.000588267 0.0105664 -0.0188686 -1.83385e-15 0.0103854 -0.0178265 -0.000573722 0.0101898 -0.0168588 -0.0011329 0.00997969 -0.0159656 -0.00167753 0.00975504 -0.0151467 -0.00220762 0.00951584 -0.0144024 -0.00272317 0.0092621 -0.0137324 -0.00322417 0.00899381 -0.0131369 -0.00371062 0.00871098 -0.0126158 -0.00418253 0.0084136 -0.0121692 -0.0046399 0.00810168 -0.011797 -0.00508272 0.00777522 -0.0114993 -0.00551099 0.00743421 -0.011276 -0.00592473 0.00707866 -0.0111271 -0.00632391 0.00670856 -0.0110526 -0.00670856 0.00632391 -0.0110526 -0.00707866 0.00592473 -0.0111271 -0.00743421 0.00551099 -0.011276 -0.00777522 0.00508272 -0.0114993 -0.00810168 0.0046399 -0.011797 -0.0084136 0.00418253 -0.0121692 -0.00871098 0.00371062 -0.0126158 -0.00899381 0.00322417 -0.0131369 -0.0092621 0.00272317 -0.0137324 -0.00951584 0.00220762 -0.0144024 -0.00975504 0.00167753 -0.0151467 -0.00997969 0.0011329 -0.0159656 -0.0101898 0.000573722 -0.0168588 -0.0103854 1.30543e-14 -0.0178265 -0.0105664 -0.000588267 -0.0188686 0.00116091 0.0103999 -0.0179448 0.000573722 0.0101898 -0.0168588 -1.75106e-15 0.00996622 -0.0158504 -0.000560255 0.00972918 -0.0149196 -0.00110704 0.00947867 -0.0140663 -0.00164036 0.00921469 -0.0132906 -0.00216022 0.00893725 -0.0125925 -0.0026666 0.00864634 -0.0119719 -0.00315952 0.00834196 -0.0114289 -0.00363898 0.00802411 -0.0109635 -0.00410496 0.0076928 -0.0105756 -0.00455748 0.00734802 -0.0102654 -0.00499653 0.00698977 -0.0100327 -0.00542211 0.00661806 -0.00987752 -0.00583423 0.00623288 -0.00979995 -0.00623288 0.00583423 -0.00979995 -0.00661806 0.00542211 -0.00987752 -0.00698977 0.00499653 -0.0100327 -0.00734802 0.00455748 -0.0102654 -0.0076928 0.00410496 -0.0105756 -0.00802411 0.00363898 -0.0109635 -0.00834196 0.00315952 -0.0114289 -0.00864634 0.0026666 -0.0119719 -0.00893725 0.00216022 -0.0125925 -0.00921469 0.00164036 -0.0132906 -0.00947867 0.00110704 -0.0140663 -0.00972918 0.000560255 -0.0149196 -0.00996622 1.25756e-14 -0.0158504 -0.0101898 -0.000573722 -0.0168588 -0.0103999 -0.00116091 -0.0179448 0.00171793 0.0102178 -0.017092 0.0011329 0.00997969 -0.0159656 0.000560255 0.00972918 -0.0149196 -1.3518e-15 0.00946628 -0.013954 -0.000547865 0.00919099 -0.013069 -0.00108334 0.00890331 -0.0122644 -0.00160643 0.00860324 -0.0115402 -0.00211712 0.00829078 -0.0108965 -0.00261543 0.00796593 -0.0103333 -0.00310134 0.0076287 -0.00985053 -0.00357487 0.00727907 -0.00944823 -0.00403601 0.00691705 -0.00912638 -0.00448475 0.00654264 -0.008885 -0.00492111 0.00615584 -0.00872408 -0.00534508 0.00575666 -0.00864362 -0.00575666 0.00534508 -0.00864362 -0.00615584 0.00492111 -0.00872408 -0.00654264 0.00448475 -0.008885 -0.00691705 0.00403601 -0.00912638 -0.00727907 0.00357487 -0.00944823 -0.0076287 0.00310134 -0.00985053 -0.00796593 0.00261543 -0.0103333 -0.00829078 0.00211712 -0.0108965 -0.00860324 0.00160643 -0.0115402 -0.00890331 0.00108334 -0.0122644 -0.00919099 0.000547865 -0.013069 -0.00946628 1.217e-14 -0.013954 -0.00972918 -0.000560255 -0.0149196 -0.00997969 -0.0011329 -0.0159656 -0.0102178 -0.00171793 -0.017092 0.00225934 0.0100201 -0.0163103 0.00167753 0.00975504 -0.0151467 0.00110704 0.00947867 -0.0140663 0.000547865 0.00919099 -0.013069 -6.27333e-16 0.008892 -0.0121547 -0.000536553 0.00858169 -0.0113236 -0.00106179 0.00826008 -0.0105756 -0.00157572 0.00792715 -0.00991075 -0.00207834 0.00758291 -0.00932898 -0.00256964 0.00722735 -0.00883031 -0.00304963 0.00686049 -0.00841476 -0.00351831 0.00648231 -0.00808232 -0.00397567 0.00609282 -0.00783298 -0.00442173 0.00569201 -0.00766676 -0.00485647 0.0052799 -0.00758365 -0.0052799 0.00485647 -0.00758365 -0.00569201 0.00442173 -0.00766676 -0.00609282 0.00397567 -0.00783298 -0.00648231 0.00351831 -0.00808232 -0.00686049 0.00304963 -0.00841476 -0.00722735 0.00256964 -0.00883031 -0.00758291 0.00207834 -0.00932898 -0.00792715 0.00157572 -0.00991075 -0.00826008 0.00106179 -0.0105756 -0.00858169 0.000536553 -0.0113236 -0.008892 1.18365e-14 -0.0121547 -0.00919099 -0.000547865 -0.013069 -0.00947867 -0.00110704 -0.0140663 -0.00975504 -0.00167753 -0.0151467 -0.0100201 -0.00225934 -0.0163103 0.00278512 0.00980675 -0.0155996 0.00220762 0.00951584 -0.0144024 0.00164036 0.00921469 -0.0132906 0.00108334 0.00890331 -0.0122644 0.000536553 0.00858169 -0.0113236 4.22705e-16 0.00824984 -0.0104684 -0.000526318 0.00790776 -0.00969876 -0.0010424 0.00755543 -0.0090146 -0.00154825 0.00719288 -0.00841596 -0.00204386 0.00682009 -0.00790284 -0.00252924 0.00643706 -0.00747524 -0.00300438 0.0060438 -0.00713316 -0.00346929 0.0056403 -0.00687661 -0.00392396 0.00522657 -0.00670557 -0.0043684 0.0048026 -0.00662005 -0.0048026 0.0043684 -0.00662005 -0.00522657 0.00392396 -0.00670557 -0.0056403 0.00346929 -0.00687661 -0.0060438 0.00300438 -0.00713316 -0.00643706 0.00252924 -0.00747524 -0.00682009 0.00204386 -0.00790284 -0.00719288 0.00154825 -0.00841596 -0.00755543 0.0010424 -0.0090146 -0.00790776 0.000526318 -0.00969876 -0.00824984 1.15702e-14 -0.0104684 -0.00858169 -0.000536553 -0.0113236 -0.00890331 -0.00108334 -0.0122644 -0.00921469 -0.00164036 -0.0132906 -0.00951584 -0.00220762 -0.0144024 -0.00980675 -0.00278512 -0.0155996 0.00329527 0.00957779 -0.01496 0.00272317 0.0092621 -0.0137324 0.00216022 0.00893725 -0.0125925 0.00160643 0.00860324 -0.0115402 0.00106179 0.00826008 -0.0105756 0.000526318 0.00790776 -0.00969876 1.80241e-15 0.00754628 -0.00890957 -0.00051716 0.00717564 -0.00820806 -0.00102516 0.00679584 -0.00759425 -0.00152401 0.00640689 -0.00706812 -0.00201369 0.00600878 -0.00662968 -0.00249422 0.00560151 -0.00627893 -0.0029656 0.00518509 -0.00601586 -0.00342781 0.00475951 -0.00584049 -0.00388087 0.00432476 -0.0057528 -0.00432476 0.00388087 -0.0057528 -0.00475951 0.00342781 -0.00584049 -0.00518509 0.0029656 -0.00601586 -0.00560151 0.00249422 -0.00627893 -0.00600878 0.00201369 -0.00662968 -0.00640689 0.00152401 -0.00706812 -0.00679584 0.00102516 -0.00759425 -0.00717564 0.00051716 -0.00820806 -0.00754628 1.13755e-14 -0.00890957 -0.00790776 -0.000526318 -0.00969876 -0.00826008 -0.00106179 -0.0105756 -0.00860324 -0.00160643 -0.0115402 -0.00893725 -0.00216022 -0.0125925 -0.0092621 -0.00272317 -0.0137324 -0.00957779 -0.00329527 -0.01496 0.00378981 0.0093332 -0.0143915 0.00322417 0.00899381 -0.0131369 0.0026666 0.00864634 -0.0119719 0.00211712 0.00829078 -0.0108965 0.00157572 0.00792715 -0.00991075 0.0010424 0.00755543 -0.0090146 0.00051716 0.00717564 -0.00820806 3.51418e-15 0.00678776 -0.00749114 -0.00050908 0.00639181 -0.00686384 -0.00101008 0.00598777 -0.00632614 -0.001503 0.00557566 -0.00587807 -0.00198784 0.00515546 -0.00551961 -0.0024646 0.00472718 -0.00525076 -0.00293327 0.00429083 -0.00507153 -0.00339387 0.00384639 -0.00498191 -0.00384639 0.00339387 -0.00498191 -0.00429083 0.00293327 -0.00507153 -0.00472718 0.0024646 -0.00525076 -0.00515546 0.00198784 -0.00551961 -0.00557566 0.001503 -0.00587807 -0.00598777 0.00101008 -0.00632614 -0.00639181 0.00050908 -0.00686384 -0.00678776 1.12426e-14 -0.00749114 -0.00717564 -0.00051716 -0.00820806 -0.00755543 -0.0010424 -0.0090146 -0.00792715 -0.00157572 -0.00991075 -0.00829078 -0.00211712 -0.0108965 -0.00864634 -0.0026666 -0.0119719 -0.00899381 -0.00322417 -0.0131369 -0.0093332 -0.00378981 -0.0143915 0.00426872 0.009073 -0.0138941 0.00371062 0.00871098 -0.0126158 0.00315952 0.00834196 -0.0114289 0.00261543 0.00796593 -0.0103333 0.00207834 0.00758291 -0.00932898 0.00154825 0.00719288 -0.00841596 0.00102516 0.00679584 -0.00759425 0.00050908 0.00639181 -0.00686384 5.55799e-15 0.00598077 -0.00622472 -0.000502077 0.00556273 -0.00567691 -0.000997151 0.00513768 -0.00522041 -0.00148522 0.00470564 -0.0048552 -0.00196629 0.00426659 -0.00458129 -0.00244036 0.00382053 -0.00439869 -0.00290742 0.00336748 -0.00430739 -0.00336748 0.00290742 -0.00430739 -0.00382053 0.00244036 -0.00439869 -0.00426659 0.00196629 -0.00458129 -0.00470564 0.00148522 -0.0048552 -0.00513768 0.000997151 -0.00522041 -0.00556273 0.000502077 -0.00567691 -0.00598077 1.11737e-14 -0.00622472 -0.00639181 -0.00050908 -0.00686384 -0.00679584 -0.00102516 -0.00759425 -0.00719288 -0.00154825 -0.00841596 -0.00758291 -0.00207834 -0.00932898 -0.00796593 -0.00261543 -0.0103333 -0.00834196 -0.00315952 -0.0114289 -0.00871098 -0.00371062 -0.0126158 -0.009073 -0.00426872 -0.0138941 0.00473201 0.00879717 -0.0134677 0.00418253 0.0084136 -0.0121692 0.00363898 0.00802411 -0.0109635 0.00310134 0.0076287 -0.00985053 0.00256964 0.00722735 -0.00883031 0.00204386 0.00682009 -0.00790284 0.00152401 0.00640689 -0.00706812 0.00101008 0.00598777 -0.00632614 0.000502077 0.00556273 -0.00567691 7.9403e-15 0.00513176 -0.00512043 -0.000496151 0.00469486 -0.0046567 -0.000986377 0.00425204 -0.00428571 -0.00147068 0.00380329 -0.00400747 -0.00194905 0.00334862 -0.00382197 -0.0024215 0.00288802 -0.00372923 -0.00288802 0.0024215 -0.00372923 -0.00334862 0.00194905 -0.00382197 -0.00380329 0.00147068 -0.00400747 -0.00425204 0.000986377 -0.00428571 -0.00469486 0.000496151 -0.0046567 -0.00513176 1.1167e-14 -0.00512043 -0.00556273 -0.000502077 -0.00567691 -0.00598777 -0.00101008 -0.00632614 -0.00640689 -0.00152401 -0.00706812 -0.00682009 -0.00204386 -0.00790284 -0.00722735 -0.00256964 -0.00883031 -0.0076287 -0.00310134 -0.00985053 -0.00802411 -0.00363898 -0.0109635 -0.0084136 -0.00418253 -0.0121692 -0.00879717 -0.00473201 -0.0134677 0.00517968 0.00850572 -0.0131123 0.0046399 0.00810168 -0.011797 0.00410496 0.0076928 -0.0105756 0.00357487 0.00727907 -0.00944823 0.00304963 0.00686049 -0.00841476 0.00252924 0.00643706 -0.00747524 0.00201369 0.00600878 -0.00662968 0.001503 0.00557566 -0.00587807 0.000997151 0.00513768 -0.00522041 0.000496151 0.00469486 -0.0046567 1.06619e-14 0.00424719 -0.00418694 -0.000491303 0.00379468 -0.00381113 -0.000977758 0.00333731 -0.00352928 -0.00145936 0.0028751 -0.00334137 -0.00193612 0.00240803 -0.00324742 -0.00240803 0.00193612 -0.00324742 -0.0028751 0.00145936 -0.00334137 -0.00333731 0.000977758 -0.00352928 -0.00379468 0.000491303 -0.00381113 -0.00424719 1.12216e-14 -0.00418694 -0.00469486 -0.000496151 -0.0046567 -0.00513768 -0.000997151 -0.00522041 -0.00557566 -0.001503 -0.00587807 -0.00600878 -0.00201369 -0.00662968 -0.00643706 -0.00252924 -0.00747524 -0.00686049 -0.00304963 -0.00841476 -0.00727907 -0.00357487 -0.00944823 -0.0076928 -0.00410496 -0.0105756 -0.00810168 -0.0046399 -0.011797 -0.00850572 -0.00517968 -0.0131123 0.00561173 0.00819865 -0.0128281 0.00508272 0.00777522 -0.0114993 0.00455748 0.00734802 -0.0102654 0.00403601 0.00691705 -0.00912638 0.00351831 0.00648231 -0.00808232 0.00300438 0.0060438 -0.00713316 0.00249422 0.00560151 -0.00627893 0.00198784 0.00515546 -0.00551961 0.00148522 0.00470564 -0.0048552 0.000986377 0.00425204 -0.00428571 0.000491303 0.00379468 -0.00381113 1.37252e-14 0.00333354 -0.00343147 -0.000487532 0.00286863 -0.00314673 -0.000971294 0.00239995 -0.0029569 -0.00145128 0.0019275 -0.00286198 -0.0019275 0.00145128 -0.00286198 -0.00239995 0.000971294 -0.0029569 -0.00286863 0.000487532 -0.00314673 -0.00333354 1.13354e-14 -0.00343147 -0.00379468 -0.000491303 -0.00381113 -0.00425204 -0.000986377 -0.00428571 -0.00470564 -0.00148522 -0.0048552 -0.00515546 -0.00198784 -0.00551961 -0.00560151 -0.00249422 -0.00627893 -0.0060438 -0.00300438 -0.00713316 -0.00648231 -0.00351831 -0.00808232 -0.00691705 -0.00403601 -0.00912638 -0.00734802 -0.00455748 -0.0102654 -0.00777522 -0.00508272 -0.0114993 -0.00819865 -0.00561173 -0.0128281 0.00602815 0.00787595 -0.0126149 0.00551099 0.00743421 -0.011276 0.00499653 0.00698977 -0.0100327 0.00448475 0.00654264 -0.008885 0.00397567 0.00609282 -0.00783298 0.00346929 0.0056403 -0.00687661 0.0029656 0.00518509 -0.00601586 0.0024646 0.00472718 -0.00525076 0.00196629 0.00426659 -0.00458129 0.00147068 0.00380329 -0.00400747 0.000977758 0.00333731 -0.00352928 0.000487532 0.00286863 -0.00314673 1.71346e-14 0.00239726 -0.00285981 -0.000484839 0.00192319 -0.00266854 -0.000966984 0.00144644 -0.0025729 -0.00144644 0.000966984 -0.0025729 -0.00192319 0.000484839 -0.00266854 -0.00239726 1.15054e-14 -0.00285981 -0.00286863 -0.000487532 -0.00314673 -0.00333731 -0.000977758 -0.00352928 -0.00380329 -0.00147068 -0.00400747 -0.00426659 -0.00196629 -0.00458129 -0.00472718 -0.0024646 -0.00525076 -0.00518509 -0.0029656 -0.00601586 -0.0056403 -0.00346929 -0.00687661 -0.00609282 -0.00397567 -0.00783298 -0.00654264 -0.00448475 -0.008885 -0.00698977 -0.00499653 -0.0100327 -0.00743421 -0.00551099 -0.011276 -0.00787595 -0.00602815 -0.0126149 0.00642896 0.00753764 -0.0124728 0.00592473 0.00707866 -0.0111271 0.00542211 0.00661806 -0.00987752 0.00492111 0.00615584 -0.00872408 0.00442173 0.00569201 -0.00766676 0.00392396 0.00522657 -0.00670557 0.00342781 0.00475951 -0.00584049 0.00293327 0.00429083 -0.00507153 0.00244036 0.00382053 -0.00439869 0.00194905 0.00334862 -0.00382197 0.00145936 0.0028751 -0.00334137 0.000971294 0.00239995 -0.0029569 0.000484839 0.00192319 -0.00266854 2.08922e-14 0.00144482 -0.0024763 -0.000483223 0.00096483 -0.00238018 -0.00096483 0.000483223 -0.00238018 -0.00144482 1.17296e-14 -0.0024763 -0.00192319 -0.000484839 -0.00266854 -0.00239995 -0.000971294 -0.0029569 -0.0028751 -0.00145936 -0.00334137 -0.00334862 -0.00194905 -0.00382197 -0.00382053 -0.00244036 -0.00439869 -0.00429083 -0.00293327 -0.00507153 -0.00475951 -0.00342781 -0.00584049 -0.00522657 -0.00392396 -0.00670557 -0.00569201 -0.00442173 -0.00766676 -0.00615584 -0.00492111 -0.00872408 -0.00661806 -0.00542211 -0.00987752 -0.00707866 -0.00592473 -0.0111271 -0.00753764 -0.00642896 -0.0124728 0.00681414 0.0071837 -0.0124017 0.00632391 0.00670856 -0.0110526 0.00583423 0.00623288 -0.00979995 0.00534508 0.00575666 -0.00864362 0.00485647 0.0052799 -0.00758365 0.0043684 0.0048026 -0.00662005 0.00388087 0.00432476 -0.0057528 0.00339387 0.00384639 -0.00498191 0.00290742 0.00336748 -0.00430739 0.0024215 0.00288802 -0.00372923 0.00193612 0.00240803 -0.00324742 0.00145128 0.0019275 -0.00286198 0.000966984 0.00144644 -0.0025729 0.000483223 0.00096483 -0.00238018 2.50008e-14 0.000482684 -0.00228382 -0.000482684 1.20063e-14 -0.00228382 -0.00096483 -0.000483223 -0.00238018 -0.00144644 -0.000966984 -0.0025729 -0.0019275 -0.00145128 -0.00286198 -0.00240803 -0.00193612 -0.00324742 -0.00288802 -0.0024215 -0.00372923 -0.00336748 -0.00290742 -0.00430739 -0.00384639 -0.00339387 -0.00498191 -0.00432476 -0.00388087 -0.0057528 -0.0048026 -0.0043684 -0.00662005 -0.0052799 -0.00485647 -0.00758365 -0.00575666 -0.00534508 -0.00864362 -0.00623288 -0.00583423 -0.00979995 -0.00670856 -0.00632391 -0.0110526 -0.0071837 -0.00681414 -0.0124017 0.0071837 0.00681414 -0.0124017 0.00670856 0.00632391 -0.0110526 0.00623288 0.00583423 -0.00979995 0.00575666 0.00534508 -0.00864362 0.0052799 0.00485647 -0.00758365 0.0048026 0.0043684 -0.00662005 0.00432476 0.00388087 -0.0057528 0.00384639 0.00339387 -0.00498191 0.00336748 0.00290742 -0.00430739 0.00288802 0