<?xml version="1.0"?> 
<VTKFile type="StructuredGrid" version="0.1"> 
<StructuredGrid WholeExtent="0 14 0 14 0 29"> 
<Piece Extent="0 14 0 14 0 29"> 
<PointData>
<DataArray type="Float32" Name="hfield" format="ascii" NumberOfComponents="3"> 
-427.324 1.26784e-09 2.8117e-09 -402.077 -35.7992 2.33629e-09 -376.018 -70.7867 1.86196e-09 -349.148 -104.963 1.38652e-09 -321.466 -138.327 9.10973e-10 -292.972 -170.879 4.36103e-10 -263.666 -202.62 -3.88809e-11 -233.549 -233.549 -5.13865e-10 -202.62 -263.666 -9.8305e-10 -170.879 -292.972 -1.45246e-09 -138.327 -321.466 -1.92199e-09 -104.963 -349.148 -2.39083e-09 -70.7867 -376.018 -2.86036e-09 -35.7992 -402.077 -3.33011e-09 5.64319e-09 -427.324 -3.79941e-09 -402.077 35.7992 2.99405e-09 -375.323 1.1349e-09 2.507e-09 -347.872 -35.1035 2.02068e-09 -319.726 -69.5112 1.53454e-09 -290.885 -103.223 1.04811e-09 -261.347 -136.239 5.62368e-10 -231.114 -168.56 7.57135e-11 -200.185 -200.185 -4.10827e-10 -168.56 -231.114 -9.01655e-10 -136.239 -261.347 -1.39282e-09 -103.223 -290.885 -1.88354e-09 -69.5112 -319.726 -2.37459e-09 -35.1035 -347.872 -2.86497e-09 5.54355e-09 -375.323 -3.35625e-09 35.7992 -402.077 -3.84753e-09 -376.018 70.7867 3.17503e-09 -347.872 35.1035 2.6773e-09 -319.147 1.02943e-09 2.17991e-09 -289.841 -34.5237 1.68261e-09 -259.955 -68.4676 1.18491e-09 -229.49 -101.832 6.8761e-10 -198.445 -134.616 1.90081e-10 -166.821 -166.821 -3.07562e-10 -134.616 -198.445 -8.2009e-10 -101.832 -229.49 -1.33239e-09 -68.4676 -259.955 -1.84497e-09 -34.5237 -289.841 -2.35744e-09 5.57338e-09 -319.147 -2.86957e-09 35.1035 -347.872 -3.38239e-09 70.7867 -376.018 -3.89474e-09 -349.148 104.963 3.35669e-09 -319.726 69.5112 2.84805e-09 -289.841 34.5237 2.33943e-09 -259.492 9.6145e-10 1.83074e-09 -228.679 -34.0599 1.32194e-09 -197.402 -67.6559 8.13193e-10 -165.661 -100.788 3.04334e-10 -133.456 -133.456 -2.04297e-10 -100.788 -165.661 -7.38553e-10 -67.6559 -197.402 -1.27235e-09 -34.0599 -228.679 -1.80641e-09 5.68741e-09 -259.492 -2.34052e-09 34.5237 -289.841 -2.87418e-09 69.5112 -319.726 -3.40875e-09 104.963 -349.148 -3.94241e-09 -321.466 138.327 3.53881e-09 -290.885 103.223 3.0189e-09 -259.955 68.4676 2.49874e-09 -228.679 34.0599 1.97881e-09 -197.054 9.24501e-10 1.45885e-09 -165.081 -33.712 9.38946e-10 -132.761 -67.0761 4.18928e-10 -100.092 -100.092 -1.01146e-10 -67.0761 -132.761 -6.56675e-10 -33.712 -165.081 -1.21232e-09 5.84365e-09 -197.054 -1.76802e-09 34.0599 -228.679 -2.3236e-09 68.4676 -259.955 -2.87913e-09 103.223 -290.885 -3.43466e-09 138.327 -321.466 -3.9903e-09 -292.972 170.879 3.72093e-09 -261.347 136.239 3.18923e-09 -229.49 101.832 2.65823e-09 -197.402 67.6559 2.12708e-09 -165.081 33.712 1.59571e-09 -132.529 9.22171e-10 1.06447e-09 -99.7445 -33.4801 5.33239e-10 -66.7282 -66.7282 2.00472e-12 -33.4801 -99.7445 -5.75138e-10 5.99894e-09 -132.529 -1.15222e-09 33.712 -165.081 -1.72939e-09 67.6559 -197.402 -2.30685e-09 101.832 -229.49 -2.88385e-09 136.239 -261.347 -3.46079e-09 170.879 -292.972 -4.0383e-09 -263.666 202.62 3.90265e-09 -231.114 168.56 3.3597e-09 -198.445 134.616 2.81767e-09 -165.661 100.788 2.2752e-09 -132.761 67.0761 1.7327e-09 -99.7445 33.4801 1.19017e-09 -66.6123 9.50877e-10 6.47719e-10 -33.3641 -33.3641 1.05213e-10 6.11065e-09 -66.6123 -4.93593e-10 33.4801 -99.7445 -1.09227e-09 67.0761 -132.761 -1.691e-09 100.788 -165.661 -2.28973e-09 134.616 -198.445 -2.88834e-09 168.56 -231.114 -3.48721e-09 202.62 -263.666 -4.08614e-09 -233.549 233.549 4.08448e-09 -200.185 200.185 3.53085e-09 -166.821 166.821 2.97699e-09 -133.456 133.456 2.42336e-09 -100.092 100.092 1.86961e-09 -66.7282 66.7282 1.31581e-09 -33.3641 33.3641 7.62151e-10 6.13613e-09 1.01124e-09 2.08399e-10 33.3641 -33.3641 -4.11921e-10 66.7282 -66.7282 -1.03226e-09 100.092 -100.092 -1.65261e-09 133.456 -133.456 -2.27295e-09 166.821 -166.821 -2.89306e-09 200.185 -200.185 -3.51352e-09 233.549 -233.549 -4.13375e-09 -202.62 263.666 4.13536e-09 -168.56 231.114 3.58479e-09 -134.616 198.445 3.03442e-09 -100.788 165.661 2.48389e-09 -67.0761 132.761 1.9332e-09 -33.4801 99.7445 1.38269e-09 6.00282e-09 66.6123 8.32216e-10 33.3641 33.3641 2.81631e-10 66.6123 1.0035e-09 -3.26054e-10 99.7445 -33.4801 -9.33696e-10 132.761 -67.0761 -1.54131e-09 165.661 -100.788 -2.14911e-09 198.445 -134.616 -2.75685e-09 231.114 -168.56 -3.36445e-09 263.666 -202.62 -3.97216e-09 -170.879 292.972 4.18629e-09 -136.239 261.347 3.63908e-09 -101.832 229.49 3.0914e-09 -67.6559 197.402 2.54425e-09 -33.712 165.081 1.99682e-09 5.87127e-09 132.529 1.44945e-09 33.4801 99.7445 9.02219e-10 66.7282 66.7282 3.54873e-10 99.7445 33.4801 -2.40263e-10 132.529 9.27685e-10 -8.35314e-10 165.081 -33.712 -1.43052e-09 197.402 -67.6559 -2.0255e-09 229.49 -101.832 -2.6206e-09 261.347 -136.239 -3.21575e-09 292.972 -170.879 -3.81056e-09 -138.327 321.466 4.23711e-09 -103.223 290.885 3.69276e-09 -68.4676 259.955 3.14878e-09 -34.0599 228.679 2.60468e-09 5.74045e-09 197.054 2.06052e-09 33.712 165.081 1.51618e-09 67.0761 132.761 9.72136e-10 100.092 100.092 4.28145e-10 132.761 67.0761 -1.545e-10 165.081 33.712 -7.36918e-10 197.054 8.19171e-10 -1.31928e-09 228.679 -34.0599 -1.90187e-09 259.955 -68.4676 -2.4844e-09 290.885 -103.223 -3.06682e-09 321.466 -138.327 -3.64935e-09 -104.963 349.148 4.28804e-09 -69.5112 319.726 3.74725e-09 -34.5237 289.841 3.20603e-09 5.60894e-09 259.492 2.66499e-09 34.0599 228.679 2.12418e-09 67.6559 197.402 1.58332e-09 100.788 165.661 1.04228e-09 133.456 133.456 5.01359e-10 165.661 100.788 -6.85247e-11 197.402 67.6559 -6.38295e-10 228.679 34.0599 -1.20815e-09 259.492 7.09292e-10 -1.77818e-09 289.841 -34.5237 -2.34832e-09 319.726 -69.5112 -2.91789e-09 349.148 -104.963 -3.48768e-09 -70.7867 376.018 4.33874e-09 -35.1035 347.872 3.80103e-09 5.47419e-09 319.147 3.26332e-09 34.5237 289.841 2.72524e-09 68.4676 259.955 2.18756e-09 101.832 229.49 1.64982e-09 134.616 198.445 1.1122e-09 166.821 166.821 5.74573e-10 198.445 134.616 1.73372e-11 229.49 101.832 -5.40126e-10 259.955 68.4676 -1.09696e-09 289.841 34.5237 -1.65437e-09 319.147 6.36987e-10 -2.21189e-09 347.872 -35.1035 -2.76873e-09 376.018 -70.7867 -3.32625e-09 -35.7992 402.077 4.39013e-09 5.33505e-09 375.323 3.85526e-09 35.1035 347.872 3.32039e-09 69.5112 319.726 2.78601e-09 103.223 290.885 2.25134e-09 136.239 261.347 1.71667e-09 168.56 231.114 1.18212e-09 200.185 200.185 6.4756e-10 231.114 168.56 1.0283e-10 261.347 136.239 -4.41332e-10 290.885 103.223 -9.86006e-10 319.726 69.5112 -1.53045e-09 347.872 35.1035 -2.07569e-09 375.323 6.33918e-10 -2.6198e-09 402.077 -35.7992 -3.16459e-09 5.18844e-09 427.324 4.44061e-09 35.7992 402.077 3.90909e-09 70.7867 376.018 3.37792e-09 104.963 349.148 2.84638e-09 138.327 321.466 2.31535e-09 170.879 292.972 1.78375e-09 202.62 263.666 1.25237e-09 233.549 233.549 7.21002e-10 263.666 202.62 1.89061e-10 292.972 170.879 -3.42993e-10 321.466 138.327 -8.74934e-10 349.148 104.963 -1.40676e-09 376.018 70.7867 -1.93927e-09 402.077 35.7992 -2.47064e-09 427.324 7.34644e-10 -3.00315e-09 -830.862 1.04774e-09 3.01748e-09 -781.062 -68.8949 2.58709e-09 -729.794 -136.321 2.15695e-09 -677.056 -202.278 1.72582e-09 -622.85 -266.766 1.29552e-09 -567.175 -329.786 8.64702e-10 -510.031 -391.336 4.34284e-10 -451.418 -451.418 3.75167e-12 -391.336 -510.031 -4.58527e-10 -329.786 -567.175 -9.20579e-10 -266.766 -622.85 -1.38289e-09 -202.278 -677.056 -1.84491e-09 -136.321 -729.794 -2.30716e-09 -68.8949 -781.062 -2.76918e-09 5.16275e-09 -830.862 -3.23166e-09 -781.062 68.8949 3.09782e-09 -728.535 1.20358e-09 2.65704e-09 -674.748 -67.6358 2.21689e-09 -619.702 -134.013 1.77639e-09 -563.398 -199.13 1.33584e-09 -505.834 -262.989 8.95624e-10 -447.011 -325.589 4.55298e-10 -386.93 -386.93 1.48011e-11 -325.589 -447.011 -4.49596e-10 -262.989 -505.834 -9.13823e-10 -199.13 -563.398 -1.37845e-09 -134.013 -619.702 -1.84279e-09 -67.6358 -674.748 -2.30724e-09 5.60047e-09 -728.535 -2.77181e-09 68.8949 -781.062 -3.23638e-09 -729.794 136.321 3.17704e-09 -674.748 67.6358 2.72684e-09 -618.653 1.34278e-09 2.27691e-09 -561.509 -66.5867 1.82684e-09 -503.316 -132.124 1.3765e-09 -444.074 -196.612 9.26376e-10 -383.782 -260.051 4.76028e-10 -322.441 -322.441 2.59642e-11 -260.051 -383.782 -4.40693e-10 -196.612 -444.074 -9.07407e-10 -132.124 -503.316 -1.37395e-09 -66.5867 -561.509 -1.84066e-09 5.93644e-09 -618.653 -2.30789e-09 67.6358 -674.748 -2.77421e-09 136.321 -729.794 -3.24064e-09 -677.056 202.278 3.25704e-09 -619.702 134.013 2.79702e-09 -561.509 66.5867 2.33717e-09 -502.477 1.46383e-09 1.87707e-09 -442.605 -65.7473 1.41704e-09 -381.894 -130.655 9.57014e-10 -320.343 -194.724 4.9727e-10 -257.953 -257.953 3.71272e-11 -194.724 -320.343 -4.31932e-10 -130.655 -381.894 -9.00878e-10 -65.7473 -442.605 -1.3698e-09 6.18689e-09 -502.477 -1.83883e-09 66.5867 -561.509 -2.30786e-09 134.013 -619.702 -2.77695e-09 202.278 -677.056 -3.24581e-09 -622.85 266.766 3.33705e-09 -563.398 199.13 2.86719e-09 -503.316 132.124 2.39745e-09 -442.605 65.7473 1.92764e-09 -381.264 1.56399e-09 1.4577e-09 -319.294 -65.1178 9.87908e-10 -256.694 -129.606 5.1817e-10 -193.465 -193.465 4.82335e-11 -129.606 -256.694 -4.22859e-10 -65.1178 -319.294 -8.94178e-10 6.36305e-09 -381.264 -1.36553e-09 65.7473 -442.605 -1.8367e-09 132.124 -503.316 -2.30805e-09 199.13 -563.398 -2.77934e-09 266.766 -622.85 -3.25052e-09 -567.175 329.786 3.417e-09 -505.834 262.989 2.93714e-09 -444.074 196.612 2.45763e-09 -381.894 130.655 1.97806e-09 -319.294 65.1178 1.49833e-09 -256.274 1.64084e-09 1.01874e-09 -192.835 -64.6981 5.39156e-10 -128.977 -128.977 5.94534e-11 -64.6981 -192.835 -4.14204e-10 6.48026e-09 -256.274 -8.87678e-10 65.1178 -319.294 -1.36123e-09 130.655 -381.894 -1.83475e-09 196.612 -444.074 -2.3083e-09 262.989 -505.834 -2.78197e-09 329.786 -567.175 -3.25552e-09 -510.031 391.336 3.49678e-09 -447.011 325.589 3.00735e-09 -383.782 260.051 2.51798e-09 -320.343 194.724 2.02832e-09 -256.694 129.606 1.539e-09 -192.835 64.6981 1.04953e-09 -128.767 1.69553e-09 5.60042e-10 -64.4883 -64.4883 7.06165e-11 6.55103e-09 -128.767 -4.0527e-10 64.6981 -192.835 -8.81099e-10 129.606 -256.694 -1.35697e-09 194.724 -320.343 -1.83276e-09 260.051 -383.782 -2.30861e-09 325.589 -447.011 -2.78448e-09 391.336 -510.031 -3.26038e-09 -451.418 451.418 3.57646e-09 -386.93 386.93 3.07726e-09 -322.441 322.441 2.57806e-09 -257.953 257.953 2.0788e-09 -193.465 193.465 1.57948e-09 -128.977 128.977 1.08028e-09 -64.4883 64.4883 5.81025e-10 6.58861e-09 1.72372e-09 8.17595e-11 64.4883 -64.4883 -3.96354e-10 128.977 -128.977 -8.74499e-10 193.465 -193.465 -1.35262e-09 257.953 -257.953 -1.83079e-09 322.441 -322.441 -2.30891e-09 386.93 -386.93 -2.78691e-09 451.418 -451.418 -3.26497e-09 -391.336 510.031 3.60004e-09 -325.589 447.011 3.10897e-09 -260.051 383.782 2.61821e-09 -194.724 320.343 2.12736e-09 -129.606 256.694 1.63623e-09 -64.6981 192.835 1.14542e-09 6.54626e-09 128.767 6.54438e-10 64.4883 64.4883 1.63482e-10 128.767 1.69095e-09 -3.20689e-10 192.835 -64.6981 -8.04839e-10 256.694 -129.606 -1.28891e-09 320.343 -194.724 -1.77309e-09 383.782 -260.051 -2.25705e-09 447.011 -325.589 -2.74122e-09 510.031 -391.336 -3.22549e-09 -329.786 567.175 3.62371e-09 -262.989 505.834 3.14097e-09 -196.612 444.074 2.65834e-09 -130.655 381.894 2.17574e-09 -65.1178 319.294 1.693e-09 6.45304e-09 256.274 1.21045e-09 64.6981 192.835 7.27823e-10 128.977 128.977 2.45194e-10 192.835 64.6981 -2.44995e-10 256.274 1.64971e-09 -7.35113e-10 319.294 -65.1178 -1.22517e-09 381.894 -130.655 -1.71545e-09 444.074 -196.612 -2.20564e-09 505.834 -262.989 -2.6958e-09 567.175 -329.786 -3.18579e-09 -266.766 622.85 3.6473e-09 -199.13 563.398 3.17302e-09 -132.124 503.316 2.69863e-09 -65.7473 442.605 2.2242e-09 6.30234e-09 381.264 1.74992e-09 65.1178 319.294 1.27559e-09 129.606 256.694 8.01208e-10 193.465 193.465 3.2685e-10 256.694 129.606 -1.69393e-10 319.294 65.1178 -6.65551e-10 381.264 1.59514e-09 -1.16165e-09 442.605 -65.7473 -1.65795e-09 503.316 -132.124 -2.15408e-09 563.398 -199.13 -2.65004e-09 622.85 -266.766 -3.14628e-09 -202.278 677.056 3.67083e-09 -134.013 619.702 3.20475e-09 -66.5867 561.509 2.73877e-09 6.08935e-09 502.477 2.27271e-09 65.7473 442.605 1.80648e-09 130.655 381.894 1.34082e-09 194.724 320.343 8.74593e-10 257.953 257.953 4.0859e-10 320.343 194.724 -9.36069e-11 381.894 130.655 -5.95804e-10 442.605 65.7473 -1.09793e-09 502.477 1.52136e-09 -1.60026e-09 561.509 -66.5867 -2.10252e-09 619.702 -134.013 -2.60457e-09 677.056 -202.278 -3.10661e-09 -136.321 729.794 3.69437e-09 -67.6358 674.748 3.23669e-09 5.80712e-09 618.653 2.77896e-09 66.5867 561.509 2.32129e-09 132.124 503.316 1.86355e-09 196.612 444.074 1.40574e-09 260.051 383.782 9.48091e-10 322.441 322.441 4.90331e-10 383.782 260.051 -1.82183e-11 444.074 196.612 -5.26143e-10 503.316 132.124 -1.03432e-09 561.509 66.5867 -1.5425e-09 618.653 1.42131e-09 -2.05102e-09 674.748 -67.6358 -2.55886e-09 729.794 -136.321 -3.06727e-09 -68.8949 781.062 3.71779e-09 5.44895e-09 728.535 3.26877e-09 67.6358 674.748 2.81906e-09 134.013 619.702 2.36975e-09 199.13 563.398 1.9204e-09 262.989 505.834 1.47082e-09 325.589 447.011 1.02136e-09 386.93 386.93 5.71958e-10 447.011 325.589 5.75824e-11 505.834 262.989 -4.56566e-10 563.398 199.13 -9.70886e-10 619.702 134.013 -1.4852e-09 674.748 67.6358 -1.99907e-09 728.535 1.29057e-09 -2.5135e-09 781.062 -68.8949 -3.02725e-09 5.00904e-09 830.862 3.74166e-09 68.8949 781.062 3.30094e-09 136.321 729.794 2.85908e-09 202.278 677.056 2.41812e-09 266.766 622.85 1.97724e-09 329.786 567.175 1.53608e-09 391.336 510.031 1.0948e-09 451.418 451.418 6.53586e-10 510.031 391.336 1.33468e-10 567.175 329.786 -3.86876e-10 622.85 266.766 -9.0688e-10 677.056 202.278 -1.42734e-09 729.794 136.321 -1.94746e-09 781.062 68.8949 -2.46769e-09 830.862 1.12186e-09 -2.98814e-09 -1227.11 1.91631e-09 2.77623e-09 -1153.58 -101.773 2.42264e-09 -1077.88 -201.373 2.07012e-09 -1000.01 -298.801 1.71747e-09 -919.96 -394.056 1.36447e-09 -837.741 -487.139 1.01102e-09 -753.35 -578.048 6.57792e-10 -666.785 -666.785 3.04908e-10 -578.048 -753.35 -2.47269e-11 -487.139 -837.741 -3.54589e-10 -394.056 -919.96 -6.84622e-10 -298.801 -1000.01 -1.01431e-09 -201.373 -1077.88 -1.34446e-09 -101.773 -1153.58 -1.67392e-09 5.63159e-09 -1227.11 -2.00362e-09 -1153.58 101.773 2.81066e-09 -1076.02 1.94345e-09 2.44623e-09 -996.592 -99.9108 2.08213e-09 -915.304 -197.959 1.71733e-09 -832.154 -294.145 1.35304e-09 -747.142 -388.469 9.88923e-10 -660.267 -480.931 6.24462e-10 -571.53 -571.53 2.60228e-10 -480.931 -660.267 -7.54083e-11 -388.469 -747.142 -4.11045e-10 -294.145 -832.154 -7.47079e-10 -197.959 -915.304 -1.08277e-09 -99.9108 -996.592 -1.41801e-09 5.93997e-09 -1076.02 -1.75439e-09 101.773 -1153.58 -2.08985e-09 -1077.88 201.373 2.84463e-09 -996.592 99.9108 2.46859e-09 -913.753 1.96488e-09 2.09381e-09 -829.361 -98.3589 1.71794e-09 -743.417 -195.166 1.34196e-09 -655.922 -290.421 9.66714e-10 -566.875 -384.124 5.9079e-10 -476.275 -476.275 2.15321e-10 -384.124 -566.875 -1.26146e-10 -290.421 -655.922 -4.67841e-10 -195.166 -743.417 -8.0908e-10 -98.3589 -829.361 -1.15123e-09 6.22339e-09 -913.753 -1.49247e-09 99.9108 -996.592 -1.83371e-09 201.373 -1077.88 -2.17586e-09 -1000.01 298.801 2.87906e-09 -915.304 197.959 2.49224e-09 -829.361 98.3589 2.10516e-09 -742.176 1.98577e-09 1.71814e-09 -653.749 -97.1173 1.33121e-09 -564.081 -192.993 9.44279e-10 -473.171 -287.627 5.5746e-10 -381.02 -381.02 1.70527e-10 -287.627 -473.171 -1.7697e-10 -192.993 -564.081 -5.24353e-10 -97.1173 -653.749 -8.71992e-10 6.47105e-09 -742.176 -1.21923e-09 98.3589 -829.361 -1.56716e-09 197.959 -915.304 -1.9144e-09 298.801 -1000.01 -2.26164e-09 -919.96 394.056 2.91326e-09 -832.154 294.145 2.51503e-09 -743.417 195.166 2.11695e-09 -653.749 97.1173 1.71835e-09 -563.15 2.01101e-09 1.32035e-09 -471.619 -96.1862 9.22128e-10 -379.158 -191.441 5.23902e-10 -285.765 -285.765 1.25619e-10 -191.441 -379.158 -2.27765e-10 -96.1862 -471.619 -5.80922e-10 6.67558e-09 -563.15 -9.34448e-10 97.1173 -653.749 -1.28758e-09 195.166 -743.417 -1.64105e-09 294.145 -832.154 -1.9944e-09 394.056 -919.96 -2.34764e-09 -837.741 487.139 2.94734e-09 -747.142 388.469 2.53784e-09 -655.922 290.421 2.12848e-09 -564.081 192.993 1.71887e-09 -471.619 96.1862 1.30947e-09 -378.537 2.04227e-09 8.99806e-10 -284.834 -95.5654 4.90287e-10 -190.51 -190.51 8.07687e-11 -95.5654 -284.834 -2.78432e-10 6.82672e-09 -378.537 -6.37661e-10 96.1862 -471.619 -9.96905e-10 192.993 -564.081 -1.35609e-09 290.421 -655.922 -1.71505e-09 388.469 -747.142 -2.07452e-09 487.139 -837.741 -2.43365e-09 -753.35 578.048 2.982e-09 -660.267 480.931 2.56072e-09 -566.875 384.124 2.14029e-09 -473.171 287.627 1.71912e-09 -379.158 191.441 1.29837e-09 -284.834 95.5654 8.77598e-10 -190.2 2.08479e-09 4.56701e-10 -95.255 -95.255 3.58612e-11 6.91887e-09 -190.2 -3.29213e-10 95.5654 -284.834 -6.94301e-10 191.441 -379.158 -1.0593e-09 287.627 -473.171 -1.42438e-09 384.124 -566.875 -1.78951e-09 480.931 -660.267 -2.15458e-09 578.048 -753.35 -2.52017e-09 -666.785 666.785 3.01605e-09 -571.53 571.53 2.58381e-09 -476.275 476.275 2.15169e-09 -381.02 381.02 1.71956e-09 -285.765 285.765 1.28744e-09 -190.51 190.51 8.55257e-10 -95.255 95.255 4.23189e-10 6.9399e-09 2.14277e-09 -8.98283e-12 95.255 -95.255 -3.7995e-10 190.51 -190.51 -7.50873e-10 285.765 -285.765 -1.12202e-09 381.02 -381.02 -1.49278e-09 476.275 -476.275 -1.86376e-09 571.53 -571.53 -2.23462e-09 666.785 -666.785 -2.60572e-09 -578.048 753.35 2.95745e-09 -480.931 660.267 2.53573e-09 -384.124 566.875 2.11386e-09 -287.627 473.171 1.69213e-09 -191.441 379.158 1.27037e-09 -95.5654 284.834 8.48559e-10 6.8294e-09 190.2 4.26638e-10 95.255 95.255 4.80327e-12 190.2 2.17472e-09 -3.68296e-10 284.834 -95.5654 -7.41437e-10 379.158 -191.441 -1.11459e-09 473.171 -287.627 -1.48782e-09 566.875 -384.124 -1.86054e-09 660.267 -480.931 -2.234e-09 753.35 -578.048 -2.60712e-09 -487.139 837.741 2.89936e-09 -388.469 747.142 2.48762e-09 -290.421 655.922 2.07613e-09 -192.993 564.081 1.66477e-09 -96.1862 471.619 1.25311e-09 6.68126e-09 378.537 8.41681e-10 95.5654 284.834 4.30191e-10 190.51 190.51 1.85878e-11 284.834 95.5654 -3.56764e-10 378.537 2.18972e-09 -7.32001e-10 471.619 -96.1862 -1.10731e-09 564.081 -192.993 -1.48253e-09 655.922 -290.421 -1.85787e-09 747.142 -388.469 -2.23304e-09 837.741 -487.139 -2.60843e-09 -394.056 919.96 2.84103e-09 -294.145 832.154 2.43988e-09 -195.166 743.417 2.03835e-09 -97.1173 653.749 1.63735e-09 6.49675e-09 563.15 1.23606e-09 96.1862 471.619 8.34859e-10 191.441 379.158 4.33602e-10 285.765 285.765 3.24007e-11 379.158 191.441 -3.4504e-10 471.619 96.1862 -7.22707e-10 563.15 2.18779e-09 -1.09998e-09 653.749 -97.1173 -1.47747e-09 743.417 -195.166 -1.85503e-09 832.154 -294.145 -2.23247e-09 919.96 -394.056 -2.6098e-09 -298.801 1000.01 2.78283e-09 -197.959 915.304 2.39157e-09 -98.3589 829.361 2.00129e-09 6.28097e-09 742.176 1.60992e-09 97.1173 653.749 1.21895e-09 192.993 564.081 8.28095e-10 287.627 473.171 4.37126e-10 381.02 381.02 4.62705e-11 473.171 287.627 -3.33443e-10 564.081 192.993 -7.13214e-10 653.749 97.1173 -1.09264e-09 742.176 2.17165e-09 -1.47236e-09 829.361 -98.3589 -1.85196e-09 915.304 -197.959 -2.2319e-09 1000.01 -298.801 -2.61161e-09 -201.373 1077.88 2.72416e-09 -99.9108 996.592 2.34326e-09 6.0358e-09 913.753 1.96292e-09 98.3589 829.361 1.58235e-09 195.166 743.417 1.2019e-09 290.421 655.922 8.21046e-10 384.124 566.875 4.4065e-10 476.275 476.275 6.00267e-11 566.875 384.124 -3.22132e-10 655.922 290.421 -7.03494e-10 743.417 195.166 -1.0856e-09 829.361 98.3589 -1.46747e-09 913.753 2.1405e-09 -1.84923e-09 996.592 -99.9108 -2.23076e-09 1077.88 -201.373 -2.61252e-09 -101.773 1153.58 2.66573e-09 5.76358e-09 1076.02 2.29562e-09 99.9108 996.592 1.92529e-09 197.959 915.304 1.55507e-09 294.145 832.154 1.18484e-09 388.469 747.142 8.14339e-10 480.931 660.267 4.44174e-10 571.53 571.53 7.38964e-11 660.267 480.931 -3.10251e-10 747.142 388.469 -6.94399e-10 832.154 294.145 -1.07821e-09 915.304 197.959 -1.46224e-09 996.592 99.9108 -1.8465e-09 1076.02 2.09184e-09 -2.23031e-09 1153.58 -101.773 -2.61389e-09 5.46879e-09 1227.11 2.60798e-09 101.773 1153.58 2.24802e-09 201.373 1077.88 1.8876e-09 298.801 1000.01 1.52761e-09 394.056 919.96 1.16768e-09 487.139 837.741 8.07745e-10 578.048 753.35 4.47926e-10 666.785 666.785 8.75389e-11 753.35 578.048 -2.98712e-10 837.741 487.139 -6.84622e-10 919.96 394.056 -1.0707e-09 1000.01 298.801 -1.45724e-09 1077.88 201.373 -1.84332e-09 1153.58 101.773 -2.22963e-09 1227.11 2.0309e-09 -2.61616e-09 -1515.02 1.88652e-09 2.56889e-09 -1424.27 -125.682 2.26989e-09 -1330.83 -248.677 1.9715e-09 -1234.71 -368.985 1.67259e-09 -1135.9 -486.605 1.37388e-09 -1034.4 -601.539 1.07497e-09 -930.216 -713.785 7.76286e-10 -823.344 -823.344 4.77318e-10 -713.785 -930.216 2.45504e-10 -601.539 -1034.4 1.3717e-11 -486.605 -1135.9 -2.1824e-10 -368.985 -1234.71 -4.49486e-10 -248.677 -1330.83 -6.81588e-10 -125.682 -1424.27 -9.13744e-10 5.46447e-09 -1515.02 -1.14533e-09 -1424.27 125.682 2.51885e-09 -1328.53 2.00764e-09 2.21652e-09 -1230.49 -123.379 1.91506e-09 -1130.14 -244.454 1.61252e-09 -1027.49 -363.227 1.31017e-09 -922.539 -479.696 1.00843e-09 -815.283 -593.861 7.06247e-10 -705.724 -705.724 4.04005e-10 -593.861 -815.283 1.66292e-10 -479.696 -922.539 -7.17664e-11 -363.227 -1027.49 -3.09689e-10 -244.454 -1130.14 -5.47481e-10 -123.379 -1230.49 -7.85516e-10 5.85821e-09 -1328.53 -1.02366e-09 125.682 -1424.27 -1.26123e-09 -1330.83 248.677 2.46845e-09 -1230.49 123.379 2.16311e-09 -1128.22 2.14249e-09 1.85773e-09 -1024.04 -121.459 1.55245e-09 -917.932 -240.999 1.24676e-09 -809.909 -358.62 9.41558e-10 -699.966 -474.321 6.36038e-10 -588.103 -588.103 3.30635e-10 -474.321 -699.966 8.67167e-11 -358.62 -809.909 -1.56971e-10 -240.999 -917.932 -4.01185e-10 -121.459 -1024.04 -6.45032e-10 6.19733e-09 -1128.22 -8.88989e-10 123.379 -1230.49 -1.13289e-09 248.677 -1330.83 -1.37691e-09 -1234.71 368.985 2.41864e-09 -1130.14 244.454 2.1095e-09 -1024.04 121.459 1.80106e-09 -916.397 2.28025e-09 1.49215e-09 -807.221 -119.924 1.18358e-09 -696.511 -238.312 8.74763e-10 -584.264 -355.165 5.66115e-10 -470.482 -470.482 2.57379e-10 -355.165 -584.264 7.37234e-12 -238.312 -696.511 -2.42713e-10 -119.924 -807.221 -4.9263e-10 6.47856e-09 -916.397 -7.42635e-10 121.459 -1024.04 -9.92924e-10 244.454 -1130.14 -1.2427e-09 368.985 -1234.71 -1.49299e-09 -1135.9 486.605 2.36814e-09 -1027.49 363.227 2.05619e-09 -917.932 240.999 1.74428e-09 -807.221 119.924 1.43216e-09 -695.359 2.41613e-09 1.12005e-09 -582.345 -118.772 8.08143e-10 -468.179 -236.393 4.96132e-10 -352.862 -352.862 1.84008e-10 -236.393 -468.179 -7.21088e-11 -118.772 -582.345 -3.28099e-10 6.70585e-09 -695.359 -5.84334e-10 119.924 -807.221 -8.40293e-10 240.999 -917.932 -1.09657e-09 363.227 -1027.49 -1.35285e-09 486.605 -1135.9 -1.60855e-09 -1034.4 601.539 2.31815e-09 -922.539 479.696 2.00256e-09 -809.909 358.62 1.68735e-09 -696.511 238.312 1.37211e-09 -582.345 118.772 1.05664e-09 -467.411 2.54079e-09 7.41337e-10 -351.71 -118.004 4.2605e-10 -235.241 -235.241 1.10724e-10 -118.004 -351.71 -1.51503e-10 6.87959e-09 -467.411 -4.13659e-10 118.772 -582.345 -6.75819e-10 238.312 -696.511 -9.38154e-10 358.62 -809.909 -1.20013e-09 479.696 -922.539 -1.46233e-09 601.539 -1034.4 -1.7246e-09 -930.216 713.785 2.26802e-09 -815.283 593.861 1.9492e-09 -699.966 474.321 1.63072e-09 -584.264 355.165 1.3119e-09 -468.179 236.393 9.93268e-10 -351.71 118.004 6.74559e-10 -234.857 2.64674e-09 3.55992e-10 -117.621 -117.621 3.73249e-11 6.99981e-09 -234.857 -2.30967e-10 118.004 -351.71 -4.99251e-10 236.393 -468.179 -7.67436e-10 355.165 -584.264 -1.03554e-09 474.321 -699.966 -1.30395e-09 593.861 -815.283 -1.57214e-09 713.785 -930.216 -1.84046e-09 -823.344 823.344 2.21778e-09 -705.724 705.724 1.89594e-09 -588.103 588.103 1.57388e-09 -470.482 470.482 1.25193e-09 -352.862 352.862 9.29955e-10 -235.241 235.241 6.07979e-10 -117.621 117.621 2.85931e-10 7.06723e-09 2.72689e-09 -3.60127e-11 117.621 -117.621 -3.10346e-10 235.241 -235.241 -5.84627e-10 352.862 -352.862 -8.58938e-10 470.482 -470.482 -1.1333e-09 588.103 -588.103 -1.40764e-09 705.724 -705.724 -1.68192e-09 823.344 -823.344 -1.95632e-09 -713.785 930.216 2.14808e-09 -593.861 815.283 1.83246e-09 -474.321 699.966 1.51715e-09 -355.165 584.264 1.20176e-09 -236.393 468.179 8.86379e-10 -118.004 351.71 5.71073e-10 7.0096e-09 234.857 2.55753e-10 117.621 117.621 -5.96807e-11 234.857 2.68574e-09 -3.38522e-10 351.71 -118.004 -6.17342e-10 468.179 -236.393 -8.96335e-10 584.264 -355.165 -1.17512e-09 699.966 -474.321 -1.4538e-09 815.283 -593.861 -1.73285e-09 930.216 -713.785 -2.01173e-09 -601.539 1034.4 2.07812e-09 -479.696 922.539 1.76916e-09 -358.62 809.909 1.46035e-09 -238.312 696.511 1.15178e-09 -118.772 582.345 8.42887e-10 6.89363e-09 467.411 5.34208e-10 118.004 351.71 2.25432e-10 235.241 235.241 -8.33014e-11 351.71 118.004 -3.66736e-10 467.411 2.62224e-09 -6.50084e-10 582.345 -118.772 -9.33447e-10 696.511 -238.312 -1.21692e-09 809.909 -358.62 -1.50027e-09 922.539 -479.696 -1.7836e-09 1034.4 -601.539 -2.06708e-09 -486.605 1135.9 2.00816e-09 -363.227 1027.49 1.70596e-09 -240.999 917.932 1.40363e-09 -119.924 807.221 1.10165e-09 6.72247e-09 695.359 7.99541e-10 118.772 582.345 4.97358e-10 236.393 468.179 1.95204e-10 352.862 352.862 -1.06922e-10 468.179 236.393 -3.94889e-10 582.345 118.772 -6.82969e-10 695.359 2.53965e-09 -9.70862e-10 807.221 -119.924 -1.2587e-09 917.932 -240.999 -1.54671e-09 1027.49 -363.227 -1.8346e-09 1135.9 -486.605 -2.12278e-09 -368.985 1234.71 1.93826e-09 -244.454 1130.14 1.64265e-09 -121.459 1024.04 1.34712e-09 6.49993e-09 916.397 1.05156e-09 119.924 807.221 7.55955e-10 238.312 696.511 4.60579e-10 355.165 584.264 1.64945e-10 470.482 470.482 -1.30685e-10 584.264 355.165 -4.23097e-10 696.511 238.312 -7.1554e-10 807.221 119.924 -1.00801e-09 916.397 2.43836e-09 -1.30039e-09 1024.04 -121.459 -1.59317e-09 1130.14 -244.454 -1.88545e-09 1234.71 -368.985 -2.17755e-09 -248.677 1330.83 1.86813e-09 -123.379 1230.49 1.57938e-09 6.22654e-09 1128.22 1.29032e-09 121.459 1024.04 1.00159e-09 240.999 917.932 7.12538e-10 358.62 809.909 4.23569e-10 474.321 699.966 1.34776e-10 588.103 588.103 -1.54193e-10 699.966 474.321 -4.51438e-10 809.909 358.62 -7.48338e-10 917.932 240.999 -1.04533e-09 1024.04 121.459 -1.3426e-09 1128.22 2.32149e-09 -1.63941e-09 1230.49 -123.379 -1.93645e-09 1330.83 -248.677 -2.23345e-09 -125.682 1424.27 1.79833e-09 5.90674e-09 1328.53 1.51643e-09 123.379 1230.49 1.23369e-09 244.454 1130.14 9.5143e-10 363.227 1027.49 6.69351e-10 479.696 922.539 3.8685e-10 593.861 815.283 1.04292e-10 705.724 705.724 -1.77813e-10 815.283 593.861 -4.79435e-10 922.539 479.696 -7.81283e-10 1027.49 363.227 -1.08281e-09 1130.14 244.454 -1.38423e-09 1230.49 123.379 -1.68588e-09 1328.53 2.19188e-09 -1.98763e-09 1424.27 -125.682 -2.28884e-09 5.54428e-09 1515.02 1.72889e-09 125.682 1424.27 1.45288e-09 248.677 1330.83 1.17693e-09 368.985 1234.71 9.01602e-10 486.605 1135.9 6.25425e-10 601.539 1034.4 3.50067e-10 713.785 930.216 7.43157e-11 823.344 823.344 -2.01492e-10 930.216 713.785 -5.07471e-10 1034.4 601.539 -8.13708e-10 1135.9 486.605 -1.11996e-09 1234.71 368.985 -1.42638e-09 1330.83 248.677 -1.73263e-09 1424.27 125.682 -2.03814e-09 1515.02 2.05e-09 -2.34388e-09 -1786.15 1.9354e-09 2.31913e-09 -1679.06 -148.072 2.07789e-09 -1568.81 -292.992 1.83721e-09 -1455.42 -434.76 1.59603e-09 -1338.87 -573.375 1.35486e-09 -1219.17 -708.838 1.11385e-09 -1096.31 -841.148 8.7293e-10 -970.307 -970.307 6.31744e-10 -841.148 -1096.31 4.96023e-10 -708.838 -1219.17 3.60494e-10 -573.375 -1338.87 2.24787e-10 -434.76 -1455.42 8.90168e-11 -292.992 -1568.81 -4.6299e-11 -148.072 -1679.06 -1.81728e-10 5.43423e-09 -1786.15 -3.1784e-10 -1679.06 148.072 2.20009e-09 -1566.11 2.08006e-09 1.96199e-09 -1450.46 -145.37 1.72439e-09 -1332.11 -288.038 1.48671e-09 -1211.06 -428.005 1.24874e-09 -1087.31 -565.269 1.01106e-09 -960.85 -699.831 7.73141e-10 -831.691 -831.691 5.35433e-10 -699.831 -960.85 3.92634e-10 -565.269 -1087.31 2.50191e-10 -428.005 -1211.06 1.07115e-10 -288.038 -1332.11 -3.57478e-11 -145.37 -1450.46 -1.78134e-10 5.81272e-09 -1566.11 -3.21445e-10 148.072 -1679.06 -4.64044e-10 -1568.81 292.992 2.08053e-09 -1450.46 145.37 1.84595e-09 -1329.86 2.22468e-09 1.6118e-09 -1207.01 -143.119 1.37736e-09 -1081.9 -283.985 1.14244e-09 -954.545 -422.601 9.0808e-10 -824.937 -558.964 6.73523e-10 -693.076 -693.076 4.3915e-10 -558.964 -824.937 2.8924e-10 -422.601 -954.545 1.39379e-10 -283.985 -1081.9 -1.02592e-11 -143.119 -1207.01 -1.60271e-10 6.13886e-09 -1329.86 -3.10055e-10 145.37 -1450.46 -4.59796e-10 292.992 -1568.81 -6.09609e-10 -1455.42 434.76 1.9618e-09 -1332.11 288.038 1.73048e-09 -1207.01 143.119 1.49927e-09 -1080.1 2.36287e-09 1.26791e-09 -951.393 -141.317 1.03666e-09 -820.884 -280.833 8.05147e-10 -688.573 -418.548 5.73968e-10 -554.461 -554.461 3.42669e-10 -418.548 -688.573 1.85691e-10 -280.833 -820.884 2.89233e-11 -141.317 -951.393 -1.28052e-10 6.41074e-09 -1080.1 -2.85e-10 143.119 -1207.01 -4.42011e-10 288.038 -1332.11 -5.98688e-10 434.76 -1455.42 -7.55501e-10 -1338.87 573.375 1.84286e-09 -1211.06 428.005 1.61478e-09 -1081.9 283.985 1.38684e-09 -951.393 141.317 1.15852e-09 -819.533 2.4902e-09 9.30412e-10 -686.321 -139.966 7.02434e-10 -551.759 -278.581 4.7436e-10 -415.846 -415.846 2.46308e-10 -278.581 -551.759 8.22331e-11 -139.966 -686.321 -8.1579e-11 6.62953e-09 -819.533 -2.4565e-10 141.317 -951.393 -4.09644e-10 283.985 -1081.9 -5.73456e-10 428.005 -1211.06 -7.37729e-10 573.375 -1338.87 -9.01705e-10 -1219.17 708.838 1.72366e-09 -1087.31 565.269 1.49881e-09 -954.545 422.601 1.274e-09 -820.884 280.833 1.04932e-09 -686.321 139.966 8.24347e-10 -550.858 2.59911e-09 5.99533e-10 -414.495 -139.066 3.74774e-10 -277.23 -277.23 1.49898e-10 -139.066 -414.495 -2.11797e-11 6.79836e-09 -550.858 -1.922e-10 139.966 -686.321 -3.63287e-10 280.833 -820.884 -5.34362e-10 422.601 -954.545 -7.05398e-10 565.269 -1087.31 -8.76358e-10 708.838 -1219.17 -1.04738e-09 -1096.31 841.148 1.60459e-09 -960.85 699.831 1.38316e-09 -824.937 558.964 1.16165e-09 -688.573 418.548 9.39843e-10 -551.759 278.581 7.18254e-10 -414.495 139.066 4.96715e-10 -276.78 2.68528e-09 2.75118e-10 -138.615 -138.615 5.35245e-11 6.9179e-09 -276.78 -1.2457e-10 139.066 -414.495 -3.02776e-10 278.581 -551.759 -4.8094e-10 418.548 -688.573 -6.58906e-10 558.964 -824.