<?xml version="1.0"?> 
<VTKFile type="StructuredGrid" version="0.1"> 
<StructuredGrid WholeExtent="0 14 0 14 0 29"> 
<Piece Extent="0 14 0 14 0 29"> 
<PointData>
<DataArray type="Float32" Name="hfield" format="ascii" NumberOfComponents="3"> 
-67.3065 3.97904e-12 -2.59206e-11 -63.4246 -5.73332 -2.69438e-11 -59.4003 -11.3242 -2.83364e-11 -55.2335 -16.7727 -2.92744e-11 -50.9244 -22.0788 -3.03544e-11 -46.4728 -27.2424 -3.14344e-11 -41.8789 -32.2637 -3.24007e-11 -37.1425 -37.1425 -3.35376e-11 -32.2637 -41.8789 -3.34524e-11 -27.2424 -46.4728 -3.34808e-11 -22.0788 -50.9244 -3.36513e-11 -16.7727 -55.2335 -3.34239e-11 -11.3242 -59.4003 -3.36513e-11 -5.73332 -63.4246 -3.31966e-11 1.40972e-11 -67.3065 -3.34239e-11 -63.4246 5.73332 -1.99897e-11 -59.2782 1.34478e-12 -2.10766e-11 -55.0097 -5.61125 -2.24193e-11 -50.6192 -11.1004 -2.36625e-11 -46.1066 -16.4675 -2.46783e-11 -41.472 -21.7126 -2.60068e-11 -36.7152 -26.8355 -2.71079e-11 -31.8364 -31.8364 -2.83795e-11 -26.8355 -36.7152 -2.87697e-11 -21.7126 -41.472 -2.89893e-11 -16.4675 -46.1066 -2.94648e-11 -11.1004 -50.6192 -2.99402e-11 -5.61125 -55.0097 -3.03019e-11 9.61364e-12 -59.2782 -3.03226e-11 5.73332 -63.4246 -3.0798e-11 -59.4003 11.3242 -1.38315e-11 -55.0097 5.61125 -1.52663e-11 -50.5175 -4.51195e-13 -1.63885e-11 -45.9235 -5.50952 -1.78801e-11 -41.2278 -10.9173 -1.9116e-11 -36.4304 -16.2234 -2.05224e-11 -31.5312 -21.4277 -2.18719e-11 -26.5303 -26.5303 -2.31646e-11 -21.4277 -31.5312 -2.39165e-11 -16.2234 -36.4304 -2.46116e-11 -10.9173 -41.2278 -2.55056e-11 -5.50952 -45.9235 -2.60017e-11 7.17648e-12 -50.5175 -2.70662e-11 5.61125 -55.0097 -2.7676e-11 11.3242 -59.4003 -2.86269e-11 -55.2335 16.7727 -7.78693e-12 -50.6192 11.1004 -9.17886e-12 -45.9235 5.50952 -1.04429e-11 -41.1464 -1.69109e-12 -1.21262e-11 -36.288 -5.42814 -1.36105e-11 -31.3481 -10.7749 -1.49811e-11 -26.3269 -16.0403 -1.65791e-11 -21.2243 -21.2243 -1.80065e-11 -16.0403 -26.3269 -1.9177e-11 -10.7749 -31.3481 -2.03191e-11 -5.42814 -36.288 -2.15464e-11 5.35749e-12 -41.1464 -2.25748e-11 5.50952 -45.9235 -2.38306e-11 11.1004 -50.6192 -2.48021e-11 16.7727 -55.2335 -2.6001e-11 -50.9244 22.0788 -1.515e-12 -46.1066 16.4675 -3.17669e-12 -41.2278 10.9173 -4.89523e-12 -36.288 5.42814 -6.41482e-12 -31.2871 -2.33058e-12 -8.0481e-12 -26.2252 -5.3671 -9.69558e-12 -21.1022 -10.6732 -1.12578e-11 -15.9182 -15.9182 -1.28484e-11 -10.6732 -21.1022 -1.44091e-11 -5.3671 -26.2252 -1.59413e-11 4.54747e-12 -31.2871 -1.75304e-11 5.42814 -36.288 -1.90342e-11 10.9173 -41.2278 -2.07086e-11 16.4675 -46.1066 -2.20418e-11 22.0788 -50.9244 -2.38299e-11 -46.4728 27.2424 4.35903e-12 -41.472 21.7126 2.70468e-12 -36.4304 16.2234 1.02191e-12 -31.3481 10.7749 -7.74544e-13 -26.2252 5.3671 -2.54258e-12 -21.0615 -2.359e-12 -4.26798e-12 -15.8572 -5.32641 -5.99338e-12 -10.6121 -10.6121 -7.69036e-12 -5.32641 -15.8572 -9.64829e-12 4.41958e-12 -21.0615 -1.15494e-11 5.3671 -26.2252 -1.3486e-11 10.7749 -31.3481 -1.538e-11 16.2234 -36.4304 -1.74729e-11 21.7126 -41.472 -1.92816e-11 27.2424 -46.4728 -2.12608e-11 -41.8789 32.2637 1.04889e-11 -36.7152 26.8355 8.60027e-12 -31.5312 21.4277 6.71524e-12 -26.3269 16.0403 4.90837e-12 -21.1022 10.6732 3.03399e-12 -15.8572 5.32641 1.18804e-12 -10.5918 -1.98952e-12 -7.00542e-13 -5.30607 -5.30607 -2.53228e-12 4.73932e-12 -10.5918 -4.86261e-12 5.32641 -15.8572 -7.19293e-12 10.6732 -21.1022 -9.52681e-12 16.0403 -26.3269 -1.18678e-11 21.4277 -31.5312 -1.41519e-11 26.8355 -36.7152 -1.65498e-11 32.2637 -41.8789 -1.88623e-11 -37.1425 37.1425 1.6505e-11 -31.8364 31.8364 1.44376e-11 -26.5303 26.5303 1.25407e-11 -21.2243 21.2243 1.0587e-11 -15.9182 15.9182 8.57644e-12 -10.6121 10.6121 6.5943e-12 -5.30607 5.30607 4.61216e-12 4.37694e-12 -8.52651e-13 2.62766e-12 5.30607 -5.30607 -1.05346e-13 10.6121 -10.6121 -2.83649e-12 15.9182 -15.9182 -5.48237e-12 21.2243 -21.2243 -8.24194e-12 26.5303 -26.5303 -1.10015e-11 31.8364 -31.8364 -1.37611e-11 37.1425 -37.1425 -1.6407e-11 -32.2637 41.8789 2.13163e-11 -26.8355 36.7152 1.93676e-11 -21.4277 31.5312 1.73159e-11 -16.0403 26.3269 1.53833e-11 -10.6732 21.1022 1.33511e-11 -5.32641 15.8572 1.13687e-11 4.61853e-12 10.5918 9.35074e-12 5.30607 5.30607 7.34701e-12 10.5918 -6.25278e-13 4.78906e-12 15.8572 -5.32641 2.19558e-12 21.1022 -10.6732 -2.98428e-13 26.3269 -16.0403 -2.92744e-12 31.5312 -21.4277 -5.6275e-12 36.7152 -26.8355 -8.01492e-12 41.8789 -32.2637 -1.05729e-11 -27.2424 46.4728 2.62048e-11 -21.7126 41.472 2.42188e-11 -16.2234 36.4304 2.20695e-11 -10.7749 31.3481 2.01226e-11 -5.3671 26.2252 1.80904e-11 5.11591e-12 21.0615 1.61151e-11 5.32641 15.8572 1.40687e-11 10.6121 10.6121 1.20508e-11 15.8572 5.32641 9.6847e-12 21.0615 -7.67386e-13 7.29017e-12 26.2252 -5.3671 4.83169e-12 31.3481 -10.7749 2.44427e-12 36.4304 -16.2234 1.13687e-13 41.472 -21.7126 -2.38742e-12 46.4728 -27.2424 -4.718e-12 -22.0788 50.9244 3.11502e-11 -16.4675 46.1066 2.90115e-11 -10.9173 41.2278 2.70433e-11 -5.42814 36.288 2.49969e-11 6.18172e-12 31.2871 2.28795e-11 5.3671 26.2252 2.09184e-11 10.6732 21.1022 1.88436e-11 15.9182 15.9182 1.67688e-11 21.1022 10.6732 1.45235e-11 26.2252 5.3671 1.22782e-11 31.2871 -1.36424e-12 1.00044e-11 36.288 -5.42814 7.78755e-12 41.2278 -10.9173 5.68434e-12 46.1066 -16.4675 3.29692e-12 50.9244 -22.0788 1.02318e-12 -16.7727 55.2335 3.61524e-11 -11.1004 50.6192 3.39071e-11 -5.50952 45.9235 3.15907e-11 7.48912e-12 41.1464 2.97575e-11 5.42814 36.288 2.76543e-11 10.7749 31.3481 2.55795e-11 16.0403 26.3269 2.359e-11 21.2243 21.2243 2.143e-11 26.3269 16.0403 1.93836e-11 31.3481 10.7749 1.73088e-11 36.288 5.42814 1.52909e-11 41.1464 -1.93268e-12 1.31877e-11 45.9235 -5.50952 1.13687e-11 50.6192 -11.1004 8.98126e-12 55.2335 -16.7727 7.04858e-12 -11.3242 59.4003 4.10409e-11 -5.61125 55.0097 3.89946e-11 9.26548e-12 50.5175 3.67493e-11 5.50952 45.9235 3.47313e-11 10.9173 41.2278 3.24576e-11 16.2234 36.4304 3.05249e-11 21.4277 31.5312 2.81943e-11 26.5303 26.5303 2.62048e-11 31.5312 21.4277 2.43858e-11 36.4304 16.2234 2.23963e-11 41.2278 10.9173 2.04636e-11 45.9235 5.50952 1.84173e-11 50.5175 -1.93268e-12 1.6712e-11 55.0097 -5.61125 1.44382e-11 59.4003 -11.3242 1.29603e-11 -5.73332 63.4246 4.57021e-11 1.04308e-11 59.2782 4.37126e-11 5.61125 55.0097 4.16378e-11 11.1004 50.6192 3.92504e-11 16.4675 46.1066 3.71756e-11 21.7126 41.472 3.52429e-11 26.8355 36.7152 3.29692e-11 31.8364 31.8364 3.09228e-11 36.7152 26.8355 2.91607e-11 41.472 21.7126 2.73985e-11 46.1066 16.4675 2.55795e-11 50.6192 11.1004 2.39879e-11 55.0097 5.61125 2.23963e-11 59.2782 -1.93268e-12 2.04636e-11 63.4246 -5.73332 1.86446e-11 1.17097e-11 67.3065 5.0477e-11 5.73332 63.4246 4.83027e-11 11.3242 59.4003 4.63842e-11 16.7727 55.2335 4.41105e-11 22.0788 50.9244 4.20641e-11 27.2424 46.4728 3.98472e-11 32.2637 41.8789 3.78577e-11 37.1425 37.1425 3.5584e-11 41.8789 32.2637 3.39639e-11 46.4728 27.2424 3.24007e-11 50.9244 22.0788 3.08091e-11 55.2335 16.7727 2.93312e-11 59.4003 11.3242 2.77396e-11 63.4246 5.73332 2.59206e-11 67.3065 -5.68434e-13 2.45564e-11 48.6818 -7.50333e-12 -2.0691e-11 44.5408 2.81353 -2.1835e-11 40.5019 5.72917 -2.34053e-11 36.5651 8.74692 -2.46416e-11 32.7304 11.8668 -2.59206e-11 28.9979 15.0888 -2.71996e-11 25.3674 18.4129 -2.83649e-11 21.8391 21.8391 -2.9786e-11 18.4129 25.3674 -3.19602e-11 15.0888 28.9979 -3.42482e-11 11.8668 32.7304 -3.64651e-11 8.74692 36.5651 -3.87104e-11 5.72917 40.5019 -4.11546e-11 2.81353 44.5408 -4.34284e-11 -1.64846e-11 48.6818 -4.55884e-11 44.5408 -2.81353 -1.55205e-11 40.5894 -5.65237e-12 -1.67907e-11 36.7256 2.90105 -1.85441e-11 32.9492 5.88963 -1.97362e-11 29.2604 8.96574 -2.10846e-11 25.6592 12.1294 -2.24899e-11 22.1454 15.3805 -2.38099e-11 18.7192 18.7192 -2.53004e-11 15.3805 22.1454 -2.75968e-11 12.1294 25.6592 -2.97796e-11 8.96574 29.2604 -3.19908e-11 5.88963 32.9492 -3.42305e-11 2.90105 36.7256 -3.64701e-11 -1.35287e-11 40.5894 -3.8596e-11 -2.81353 44.5408 -4.0722e-11 40.5019 -5.72917 -1.01226e-11 36.7256 -2.90105 -1.15475e-11 33.0222 -3.91154e-12 -1.33561e-11 29.3917 2.97399 -1.47029e-11 25.8342 6.02092 -1.61776e-11 22.3497 9.14079 -1.77802e-11 18.938 12.3336 -1.93685e-11 15.5994 15.5994 -2.09001e-11 12.3336 18.938 -2.30914e-11 9.14079 22.3497 -2.51974e-11 6.02092 25.8342 -2.75735e-11 2.97399 29.3917 -2.96084e-11 -1.11271e-11 33.0222 -3.18992e-11 -2.90105 36.7256 -3.41048e-11 -5.72917 40.5019 -3.61966e-11 36.5651 -8.74692 -4.83835e-12 32.9492 -5.88963 -6.53167e-12 29.3917 -2.97399 -8.30315e-12 25.8926 -2.60059e-12 -9.88278e-12 22.4518 3.03234 -1.1569e-11 19.0693 6.12304 -1.31131e-11 15.7452 9.27208 -1.4842e-11 12.4795 12.4795 -1.64713e-11 9.27208 15.7452 -1.86072e-11 6.12304 19.0693 -2.07431e-11 3.03234 22.4518 -2.28719e-11 -9.37916e-12 25.8926 -2.50717e-11 -2.97399 29.3917 -2.7101e-11 -5.88963 32.9492 -2.91587e-11 -8.74692 36.5651 -3.15575e-11 32.7304 -11.8668 3.32186e-13 29.2604 -8.96574 -1.39504e-12 25.8342 -6.02092 -3.25016e-12 22.4518 -3.03234 -4.97738e-12 19.1131 -1.60583e-12 -6.73303e-12 15.8182 3.07611 -8.5171e-12 12.567 6.19598 -1.02585e-11 9.35961 9.35961 -1.2071e-11 6.19598 12.567 -1.42012e-11 3.07611 15.8182 -1.6303e-11 -7.68807e-12 19.1131 -1.8355e-11 -3.03234 22.4518 -2.04497e-11 -6.02092 25.8342 -2.25301e-11 -8.96574 29.2604 -2.46674e-11 -11.8668 32.7304 -2.67479e-11 28.9979 -15.0888 5.6164e-12 25.6592 -12.1294 3.74159e-12 22.3497 -9.14079 1.76375e-12 19.0693 -6.12304 -1.64352e-13 15.8182 -3.07611 -1.99653e-12 12.5962 -5.96856e-13 -3.85713e-12 9.40337 3.10528 -5.803e-12 6.23974 6.23974 -7.67071e-12 3.10528 9.40337 -9.67797e-12 -6.45883e-12 12.5962 -1.17705e-11 -3.07611 15.8182 -1.38382e-11 -6.12304 19.0693 -1.58419e-11 -9.14079 22.3497 -1.79593e-11 -12.1294 25.6592 -2.00056e-11 -15.0888 28.9979 -2.20804e-11 25.3674 -18.4129 1.07727e-11 22.1454 -15.3805 8.72812e-12 18.938 -12.3336 6.70483e-12 15.7452 -9.27208 4.8121e-12 12.567 -6.19598 2.73286e-12 9.40337 -3.10528 7.99275e-13 6.25433 2.55795e-13 -1.23378e-12 3.11987 3.11987 -3.24908e-12 -5.52802e-12 6.25433 -5.25599e-12 -3.10528 9.40337 -7.23803e-12 -6.19598 12.567 -9.21474e-12 -9.27208 15.7452 -1.13265e-11 -12.3336 18.938 -1.32818e-11 -15.3805 22.1454 -1.52443e-11 -18.4129 25.3674 -1.72282e-11 21.8391 -21.8391 1.60571e-11 18.7192 -18.7192 1.39709e-11 15.5994 -15.5994 1.18278e-11 12.4795 -12.4795 9.68474e-12 9.35961 -9.35961 7.55587e-12 6.23974 -6.23974 5.44121e-12 3.11987 -3.11987 3.30524e-12 -4.80327e-12 1.16529e-12 1.17045e-12 -3.11987 3.11987 -7.96639e-13 -6.23974 6.23974 -2.75201e-12 -9.35961 9.35961 -4.78555e-12 -12.4795 12.4795 -6.71961e-12 -15.5994 15.5994 -8.6963e-12 -18.7192 18.7192 -1.07298e-11 -21.8391 21.8391 -1.26213e-11 18.4129 -25.3674 2.116e-11 15.3805 -22.1454 1.9063e-11 12.3336 -18.938 1.68505e-11 9.27208 -15.7452 1.47153e-11 6.19598 -12.567 1.26263e-11 3.10528 -9.40337 1.04805e-11 -4.76064e-12 -6.25433 8.37019e-12 -3.11987 -3.11987 6.25278e-12 -6.25433 5.61329e-13 4.22595e-12 -9.40337 3.10528 2.20624e-12 -12.567 6.19598 1.7053e-13 -15.7452 9.27208 -1.85452e-12 -18.938 12.3336 -3.94351e-12 -22.1454 15.3805 -5.92593e-12 -25.3674 18.4129 -7.92966e-12 15.0888 -28.9979 2.61764e-11 12.1294 -25.6592 2.41069e-11 9.14079 -22.3497 2.19309e-11 6.12304 -19.0693 1.98455e-11 3.07611 -15.8182 1.77209e-11 -5.29354e-12 -12.5962 1.5568e-11 -3.10528 -9.40337 1.34293e-11 -6.23974 -6.23974 1.13118e-11 -9.40337 -3.10528 9.24416e-12 -12.5962 2.98428e-13 7.16227e-12 -15.8182 3.07611 5.03064e-12 -19.0693 6.12304 2.98428e-12 -22.3497 9.14079 8.66862e-13 -25.6592 12.1294 -1.27898e-12 -28.9979 15.0888 -3.2685e-12 11.8668 -32.7304 3.13207e-11 8.96574 -29.2604 2.90648e-11 6.02092 -25.8342 2.71356e-11 3.03234 -22.4518 2.48406e-11 -6.19593e-12 -19.1131 2.278e-11 -3.07611 -15.8182 2.06768e-11 -6.19598 -12.567 1.85167e-11 -9.35961 -9.35961 1.63993e-11 -12.567 -6.19598 1.42606e-11 -15.8182 -3.07611 1.21645e-11 -19.1131 2.27374e-13 9.99023e-12 -22.4518 3.03234 7.87281e-12 -25.8342 6.02092 5.65592e-12 -29.2604 8.96574 3.52429e-12 -32.7304 11.8668 1.3074e-12 8.74692 -36.5651 3.62093e-11 5.88963 -32.9492 3.41842e-11 2.97399 -29.3917 3.21094e-11 -7.78755e-12 -25.8926 3.00133e-11 -3.03234 -22.4518 2.78675e-11 -6.12304 -19.0693 2.57074e-11 -9.27208 -15.7452 2.36469e-11 -12.4795 -12.4795 2.14868e-11 -15.7452 -9.27208 1.92486e-11 -19.0693 -6.12304 1.70957e-11 -22.4518 -3.03234 1.49214e-11 -25.8926 2.27374e-13 1.26477e-11 -29.3917 2.97399 1.04023e-11 -32.9492 5.88963 8.18545e-12 -36.5651 8.74692 6.19593e-12 5.72917 -40.5019 4.13252e-11 2.90105 -36.7256 3.9396e-11 -9.26548e-12 -33.0222 3.71543e-11 -2.97399 -29.3917 3.49587e-11 -6.02092 -25.8342 3.28129e-11 -9.14079 -22.3497 3.08944e-11 -12.3336 -18.938 2.86775e-11 -15.5994 -15.5994 2.66311e-11 -18.938 -12.3336 2.43219e-11 -22.3497 -9.14079 2.21121e-11 -25.8342 -6.02092 1.97531e-11 -29.3917 -2.97399 1.74794e-11 -33.0222 3.41061e-13 1.51772e-11 -36.7256 2.90105 1.29035e-11 -40.5019 5.72917 1.06297e-11 2.81353 -44.5408 4.64979e-11 -1.14539e-11 -40.5894 4.42029e-11 -2.90105 -36.7256 4.23341e-11 -5.88963 -32.9492 4.00746e-11 -8.96574 -29.2604 3.79714e-11 -12.1294 -25.6592 3.5925e-11 -15.3805 -22.1454 3.3765e-11 -18.7192 -18.7192 3.16618e-11 -22.1454 -15.3805 2.93738e-11 -25.6592 -12.1294 2.71143e-11 -29.2604 -8.96574 2.46985e-11 -32.9492 -5.88963 2.24532e-11 -36.7256 -2.90105 2.00657e-11 -40.5894 2.84217e-13 1.7792e-11 -44.5408 2.81353 1.51772e-11 -1.36424e-11 -48.6818 5.15001e-11 -2.81353 -44.5408 4.91767e-11 -5.72917 -40.5019 4.74074e-11 -8.74692 -36.5651 4.53326e-11 -11.8668 -32.7304 4.29168e-11 -15.0888 -28.9979 4.09841e-11 -18.4129 -25.3674 3.87956e-11 -21.8391 -21.8391 3.67777e-11 -25.3674 -18.4129 3.43334e-11 -28.9979 -15.0888 3.18892e-11 -32.7304 -11.8668 2.96438e-11 -36.5651 -8.74692 2.70575e-11 -40.5019 -5.72917 2.48974e-11 -44.5408 -2.81353 2.27942e-11 -48.6818 3.41061e-13 2.02363e-11 142.072 -6.82121e-13 -1.89857e-11 131.939 10.1631 -2.01084e-11 121.804 20.324 -2.16005e-11 111.666 30.4824 -2.26521e-11 101.526 40.6386 -2.38174e-11 91.3843 50.7924 -2.50111e-11 81.2398 60.9439 -2.60911e-11 71.093 71.093 -2.73985e-11 60.9439 81.2398 -2.86775e-11 50.7924 91.3843 -2.99565e-11 40.6386 101.526 -3.11502e-11 30.4824 111.666 -3.24007e-11 20.324 121.804 -3.36513e-11 10.1631 131.939 -3.51292e-11 -2.4329e-11 142.072 -3.61524e-11 131.939 -10.1631 -1.45821e-11 121.802 -1.40363e-12 -1.56686e-11 111.663 10.1611 -1.71247e-11 101.521 20.3203 -1.80692e-11 91.3783 30.4774 -1.94684e-11 81.2331 40.6326 -2.06686e-11 71.086 50.7857 -2.17836e-11 60.9368 60.9368 -2.3126e-11 50.7857 71.086 -2.45383e-11 40.6326 81.2331 -2.58938e-11 30.4774 91.3783 -2.70929e-11 20.3203 101.521 -2.86047e-11 10.1611 111.663 -3.00597e-11 -2.143e-11 121.802 -3.11167e-11 -10.1631 131.939 -3.25148e-11 121.804 -20.324 -9.95103e-12 111.663 -10.1611 -1.13213e-11 101.52 -2.20268e-12 -1.2521e-11 91.3752 10.1595 -1.38557e-11 81.2291 20.3173 -1.50057e-11 71.0813 30.4734 -1.62693e-11 60.9318 40.6279 -1.74762e-11 50.7807 50.7807 -1.87398e-11 40.6279 60.9318 -2.02428e-11 30.4734 71.0813 -2.16606e-11 20.3173 81.2291 -2.32062e-11 10.1595 91.3752 -2.4695e-11 -1.85878e-11 101.52 -2.62406e-11 -10.1611 111.663 -2.76726e-11 -20.324 121.804 -2.91045e-11 111.666 -30.4824 -5.66107e-12 101.521 -20.3203 -6.90286e-12 91.3752 -10.1595 -8.03097e-12 81.2278 -2.44427e-12 -9.42908e-12 71.079 10.1581 -1.06567e-11 60.9288 20.315 -1.187e-11 50.7774 30.4704 -1.31971e-11 40.6246 40.6246 -1.44105e-11 30.4704 50.7774 -1.60468e-11 20.315 60.9288 -1.76263e-11 10.1581 71.079 -1.9291e-11 -1.6513e-11 81.2278 -2.07853e-11 -10.1595 91.3752 -2.24216e-11 -20.3203 101.521 -2.4058e-11 -30.4824 111.666 -2.55806e-11 101.526 -40.6386 -1.14374e-12 91.3783 -30.4774 -2.28905e-12 81.2291 -20.3173 -3.71859e-12 71.079 -10.1581 -5.00246e-12 60.9278 -2.33058e-12 -6.30765e-12 50.7757 10.1571 -7.55599e-12 40.6226 20.3133 -8.83276e-12 30.4684 30.4684 -1.01095e-11 20.3133 40.6226 -1.18437e-11 10.1571 50.7757 -1.36062e-11 -1.49782e-11 60.9278 -1.52622e-11 -10.1581 71.079 -1.70745e-11 -20.3173 81.2291 -1.87163e-11 -30.4774 91.3783 -2.03296e-11 -40.6386 101.526 -2.22272e-11 91.3843 -50.7924 3.31676e-12 81.2331 -40.6326 2.02988e-12 71.0813 -30.4734 7.07483e-13 60.9288 -20.315 -6.82419e-13 50.7757 -10.1571 -1.88758e-12 40.6219 -1.76215e-12 -3.19932e-12 30.4674 10.1565 -4.49685e-12 20.3123 20.3123 -5.80859e-12 10.1565 30.4674 -7.63343e-12 -1.37845e-11 40.6219 -9.45827e-12 -10.1571 50.7757 -1.12902e-11 -20.315 60.9288 -1.31648e-11 -30.4734 71.0813 -1.49825e-11 -40.6326 81.2331 -1.68571e-11 -50.7924 91.3843 -1.86464e-11 81.2398 -60.9439 7.80567e-12 71.086 -50.7857 6.40566e-12 60.9318 -40.6279 5.0625e-12 50.7774 -30.4704 3.77618e-12 40.6226 -20.3133 2.46144e-12 30.4674 -10.1565 1.17156e-12 20.3119 -1.36424e-12 -1.53838e-13 10.1561 10.1561 -1.46503e-12 -1.28608e-11 20.3119 -3.42675e-12 -10.1565 30.4674 -5.39558e-12 -20.3133 40.6226 -7.31111e-12 -30.4704 50.7774 -9.32612e-12 -40.6279 60.9318 -1.12346e-11 -50.7857 71.086 -1.3143e-11 -60.9439 81.2398 -1.51509e-11 71.093 -71.093 1.21704e-11 60.9368 -60.9368 1.08853e-11 50.7807 -50.7807 9.54334e-12 40.6246 -40.6246 8.20137e-12 30.4684 -30.4684 6.85939e-12 20.3123 -20.3123 5.51742e-12 10.1561 -10.1561 4.18966e-12 -1.22782e-11 -1.02318e-12 2.85062e-12 -10.1561 10.1561 7.76241e-13 -20.3123 20.3123 -1.31019e-12 -30.4684 30.4684 -3.39662e-12 -40.6246 40.6246 -5.42621e-12 -50.7807 50.7807 -7.51264e-12 -60.9368 60.9368 -9.54223e-12 -71.093 71.093 -1.16855e-11 60.9439 -81.2398 1.6172e-11 50.7857 -71.086 1.47118e-11 40.6279 -60.9318 1.32445e-11 30.4704 -50.7774 1.18092e-11 20.3133 -40.6226 1.03171e-11 10.1565 -30.4674 8.83915e-12 -1.14966e-11 -20.3119 7.38964e-12 -10.1561 -10.1561 5.94014e-12 -20.3119 -5.68434e-13 4.17089e-12 -30.4674 10.1565 2.42295e-12 -40.6226 20.3133 6.25278e-13 -50.7774 30.4704 -1.08002e-12 -60.9318 40.6279 -2.8848e-12 -71.086 50.7857 -4.718e-12 -81.2398 60.9439 -6.42331e-12 50.7924 -91.3843 2.01226e-11 40.6326 -81.2331 1.86411e-11 30.4734 -71.0813 1.69678e-11 20.315 -60.9288 1.53548e-11 10.1571 -50.7757 1.38272e-11 -1.16529e-11 -40.6219 1.21929e-11 -10.1565 -30.4674 1.06155e-11 -20.3123 -20.3123 8.98126e-12 -30.4674 -10.1565 7.55307e-12 -40.6219 5.68434e-14 6.11067e-12 -50.7757 10.1571 4.63274e-12 -60.9288 20.315 3.24007e-12 -71.0813 30.4734 1.73372e-12 -81.2331 40.6326 2.84217e-13 -91.3843 50.7924 -1.13687e-12 40.6386 -101.526 2.41016e-11 30.4774 -91.3783 2.22862e-11 20.3173 -81.2291 2.0691e-11 10.1581 -71.079 1.89573e-11 -1.21645e-11 -60.9278 1.72093e-11 -10.1571 -50.7757 1.54898e-11 -20.3133 -40.6226 1.37845e-11 -30.4684 -30.4684 1.20792e-11 -40.6226 -20.3133 1.09708e-11 -50.7757 -10.1571 9.89075e-12 -60.9278 5.11591e-13 8.69704e-12 -71.079 10.1581 7.61702e-12 -81.2291 20.3173 6.36646e-12 -91.3783 30.4774 5.22959e-12 -101.526 40.6386 4.14957e-12 30.4824 -111.666 2.81943e-11 20.3203 -101.521 2.62119e-11 10.1595 -91.3752 2.43574e-11 -1.40403e-11 -81.2278 2.25526e-11 -10.1581 -71.079 2.07194e-11 -20.315 -60.9288 1.87867e-11 -30.4704 -50.7774 1.7053e-11 -40.6246 -40.6246 1.51203e-11 -50.7774 -30.4704 1.43245e-11 -60.9288 -20.315 1.34719e-11 -71.079 -10.1581 1.26192e-11 -81.2278 9.09495e-13 1.18234e-11 -91.3752 10.1595 1.09708e-11 -101.521 20.3203 1.01181e-11 -111.666 30.4824 9.43601e-12 20.324 -121.804 3.20597e-11 10.1611 -111.663 3.00915e-11 -1.60014e-11 -101.52 2.81801e-11 -10.1595 -91.3752 2.6148e-11 -20.3173 -81.2291 2.42153e-11 -30.4734 -71.0813 2.22542e-11 -40.6279 -60.9318 2.01794e-11 -50.7807 -50.7807 1.82467e-11 -60.9318 -40.6279 1.77494e-11 -71.0813 -30.4734 1.72236e-11 -81.2291 -20.3173 1.65983e-11 -91.3752 -10.1595 1.62572e-11 -101.52 5.68434e-13 1.56319e-11 -111.663 10.1611 1.51203e-11 -121.804 20.324 1.46656e-11 10.1631 -131.939 3.60387e-11 -1.78204e-11 -121.802 3.38929e-11 -10.1611 -111.663 3.19034e-11 -20.3203 -101.521 2.97291e-11 -30.4774 -91.3783 2.76259e-11 -40.6326 -81.2331 2.54659e-11 -50.7857 -71.086 2.34195e-11 -60.9368 -60.9368 2.13731e-11 -71.086 -50.7857 2.11315e-11 -81.2331 -40.6326 2.089e-11 -91.3783 -30.4774 2.07478e-11 -101.521 -20.3203 2.05773e-11 -111.663 -10.1611 2.03499e-11 -121.802 -2.27374e-13 2.00089e-11 -131.939 10.1631 1.95541e-11 -2.0691e-11 -142.072 4.00178e-11 -10.1631 -131.939 3.75877e-11 -20.324 -121.804 3.55271e-11 -30.4824 -111.666 3.35092e-11 -40.6386 -101.526 3.10934e-11 -50.7924 -91.3843 2.88765e-11 -60.9439 -81.2398 2.66027e-11 -71.093 -71.093 2.43858e-11 -81.2398 -60.9439 2.45279e-11 -91.3843 -50.7924 2.46132e-11 -101.526 -40.6386 2.467e-11 -111.666 -30.4824 2.50111e-11 -121.804 -20.324 2.48974e-11 -131.939 -10.1631 2.51248e-11 -142.072 -2.27374e-12 2.52385e-11 163.97 1.13687e-13 -1.84475e-11 152.19 11.6443 -1.96977e-11 140.42 23.2991 -2.1108e-11 128.661 34.9642 -2.20699e-11 116.913 46.6398 -2.3423e-11 105.174 58.3259 -2.45222e-11 93.4466 70.0223 -2.57208e-11 81.7293 81.7293 -2.69891e-11 70.0223 93.4466 -2.81508e-11 58.3259 105.174 -2.94134e-11 46.6398 116.913 -3.06768e-11 34.9642 128.661 -3.18385e-11 23.2991 140.42 -3.30873e-11 11.6443 152.19 -3.43636e-11 -4.33147e-11 163.97 -3.55556e-11 152.19 -11.6443 -1.43383e-11 140.429 1.47438e-13 -1.54483e-11 128.678 11.6533 -1.67372e-11 116.935 23.3154 -1.79654e-11 105.201 34.9866 -1.91254e-11 93.4764 46.6667 -2.04365e-11 81.7606 58.3557 -2.17035e-11 70.0536 70.0536 -2.29e-11 58.3557 81.7606 -2.42027e-11 46.6667 93.4764 -2.56098e-11 34.9866 105.201 -2.68434e-11 23.3154 116.935 -2.81339e-11 11.6533 128.678 -2.95256e-11 -3.11857e-11 140.429 -3.07007e-11 -11.6443 152.19 -3.20489e-11 140.42 -23.2991 -9.88809e-12 128.678 -11.6533 -1.12147e-11 116.942 -5.82645e-13 -1.25734e-11 105.215 11.6607 -1.38156e-11 93.4943 23.3289 -1.49975e-11 81.7814 35.0045 -1.63352e-11 70.076 46.6875 -1.75162e-11 58.378 58.378 -1.88256e-11 46.6875 70.076 -2.02093e-11 35.0045 81.7814 -2.16279e-11 23.3289 93.4943 -2.30118e-11 11.6607 105.215 -2.43729e-11 -2.14513e-11 116.942 -2.58787e-11 -11.6533 128.678 -2.72109e-11 -23.2991 140.42 -2.8687e-11 128.661 -34.9642 -5.834e-12 116.935 -23.3154 -7.04998e-12 105.215 -11.6607 -8.34112e-12 93.5002 -8.95284e-13 -9.66051e-12 81.7918 11.6667 -1.08835e-11 70.0894 23.3393 -1.21483e-11 58.3929 35.0179 -1.34715e-11 46.7024 46.7024 -1.4681e-11 35.0179 58.3929 -1.62171e-11 23.3393 70.0894 -1.76821e-11 11.6667 81.7918 -1.91859e-11 -1.37561e-11 93.5002 -2.07122e-11 -11.6607 105.215 -2.22024e-11 -23.3154 116.935 -2.36501e-11 -34.9642 128.661 -2.51244e-11 116.913 -46.6398 -1.68133e-12 105.201 -34.9866 -2.97904e-12 93.4943 -23.3289 -4.27175e-12 81.7918 -11.6667 -5.47243e-12 70.0939 -7.67386e-13 -6.77624e-12 58.4004 11.6711 -8.0342e-12 46.7114 23.3467 -9.31304e-12 35.0268 35.0268 -1.05777e-11 23.3467 46.7114 -1.21978e-11 11.6711 58.4004 -1.37853e-11 -8.52651e-12 70.0939 -1.53539e-11 -11.6667 81.7918 -1.69574e-11 -23.3289 93.4943 -1.85551e-11 -34.9866 105.201 -2.00298e-11 -46.6398 116.913 -2.17482e-11 105.174 -58.3259 2.54196e-12 93.4764 -46.6667 1.34343e-12 81.7814 -35.0045 -3.13489e-14 70.0894 -23.3393 -1.3807e-12 58.4004 -11.6711 -2.59855e-12 46.7144 -9.09495e-13 -3.91544e-12 35.0313 11.6741 -5.22543e-12 23.3512 23.3512 -6.49613e-12 11.6741 35.0313 -8.18739e-12 -5.69855e-12 46.7144 -9.84312e-12 -11.6711 58.4004 -1.15178e-11 -23.3393 70.0894 -1.32179e-11 -35.0045 81.7814 -1.49574e-11 -46.6667 93.4764 -1.65897e-11 -58.3259 105.174 -1.82576e-11 93.4466 -70.0223 6.7164e-12 81.7606 -58.3557 5.47343e-12 70.076 -46.6875 4.11152e-12 58.3929 -35.0179 2.82315e-12 46.7114 -23.3467 1.51946e-12 35.0313 -11.6741 2.31756e-13 23.3527 -1.0516e-12 -1.08087e-12 11.6756 11.6756 -2.38983e-12 -5.83356e-12 23.3527 -4.18059e-12 -11.6741 35.0313 -5.9341e-12 -23.3467 46.7114 -7.70887e-12 -35.0179 58.3929 -9.54942e-12 -46.6875 70.076 -1.12283e-11 -58.3557 81.7606 -1.30138e-11 -70.0223 93.4466 -1.48242e-11 81.7293 -81.7293 1.09411e-11 70.0536 -70.0536 9.61767e-12 58.378 -58.378 8.32268e-12 46.7024 -46.7024 6.99883e-12 35.0268 -35.0268 5.67542e-12 23.3512 -23.3512 4.35202e-12 11.6756 -11.6756 3.02828e-12 -7.95808e-12 -1.02318e-12 1.70929e-12 -11.6756 11.6756 -1.61967e-13 -23.3512 23.3512 -2.02339e-12 -35.0268 35.0268 -3.87383e-12 -46.7024 46.7024 -5.79577e-12 -58.378 58.378 -7.67507e-12 -70.0536 70.0536 -9.48332e-12 -81.7293 81.7293 -1.1391e-11 70.0223 -93.4466 1.4784e-11 58.3557 -81.7606 1.34235e-11 46.6875 -70.076 1.1918e-11 35.0179 -58.3929 1.05289e-11 23.3467 -46.7114 9.08779e-12 11.6741 -35.0313 7.63989e-12 -8.73257e-12 -23.3527 6.21314e-12 -11.6756 -11.6756 4.77041e-12 -23.3527 -4.25615e-12 3.14687e-12 -35.0313 11.6741 1.52151e-12 -46.7114 23.3467 -1.01363e-13 -58.3929 35.0179 -1.71341e-12 -70.076 46.6875 -3.39495e-12 -81.7606 58.3557 -4.98401e-12 -93.4466 70.0223 -6.53722e-12 58.3259 -105.174 1.85936e-11 46.6667 -93.4764 1.71248e-11 35.0045 -81.7814 1.55528e-11 23.3393 -70.0894 1.40232e-11 11.6711 -58.4004 1.24727e-11 -8.99547e-12 -46.7144 1.08862e-11 -11.6741 -35.0313 9.36007e-12 -23.3512 -23.3512 7.83795e-12 -35.0313 -11.6741 6.45395e-12 -46.7144 -9.79128e-12 5.08049e-12 -58.4004 11.6711 3.70348e-12 -70.0894 23.3393 2.36566e-12 -81.7814 35.0045 9.31699e-13 -93.4764 46.6667 -3.81029e-13 -105.174 58.3259 -1.73683e-12 46.6398 -116.913 2.25464e-11 34.9866 -105.201 2.08598e-11 23.3289 -93.4943 1.92254e-11 11.6667 -81.7918 1.74988e-11 -9.74865e-12 -70.0939 1.58327e-11 -11.6711 -58.4004 1.42271e-11 -23.3467 -46.7114 1.2536e-11 -35.0268 -35.0268 1.08877e-11 -46.7114 -23.3467 9.77451e-12 -58.4004 -11.6711 8.6573e-12 -70.0939 -1.78488e-11 7.49578e-12 -81.7918 11.6667 6.38423e-12 -93.4943 23.3289 5.33706e-12 -105.201 34.9866 4.06075e-12 -116.913 46.6398 3.07043e-12 34.9642 -128.661 2.63274e-11 23.3154 -116.935 2.46077e-11 11.6607 -105.215 2.27515e-11 -1.03597e-11 -93.5002 2.10196e-11 -11.6667 -81.7918 1.92604e-11 -23.3393 -70.0894 1.74647e-11 -35.0179 -58.3929 1.57687e-11 -46.7024 -46.7024 1.39231e-11 -58.3929 -35.0179 1.30808e-11 -70.0894 -23.3393 1.21738e-11 -81.7918 -11.6667 1.1299e-11 -93.5002 -2.78533e-11 1.04947e-11 -105.215 11.6607 9.59899e-12 -116.935 23.3154 8.71747e-12 -128.661 34.9642 7.79288e-12 23.2991 -140.42 3.01519e-11 11.6533 -128.678 2.83725e-11 -1.13403e-11 -116.942 2.65232e-11 -11.6607 -105.215 2.45444e-11 -23.3289 -93.4943 2.27014e-11 -35.0045 -81.7814 2.08304e-11 -46.6875 -70.076 1.88516e-11 -58.378 -58.378 1.70015e-11 -70.076 -46.6875 1.64235e-11 -81.7814 -35.0045 1.58042e-11 -93.4943 -23.3289 1.50813e-11 -105.215 -11.6607 1.45213e-11 -116.942 -4.01315e-11 1.38742e-11 -128.678 11.6533 1.3145e-11 -140.42 23.2991 1.26708e-11 11.6443 -152.19 3.40616e-11 -1.19371e-11 -140.429 3.19593e-11 -11.6533 -128.678 3.01028e-11 -23.3154 -116.935 2.80058e-11 -34.9866 -105.201 2.6001e-11 -46.6667 -93.4764 2.40887e-11 -58.3557 -81.7606 2.20344e-11 -70.0536 -70.0536 2.00515e-11 -81.7606 -58.3557 1.97253e-11 -93.4764 -46.6667 1.93201e-11 -105.201 -34.9866 1.89688e-11 -116.935 -23.3154 1.84892e-11 -128.678 -11.6533 1.82245e-11 -140.429 -5.43423e-11 1.77574e-11 -152.19 11.6443 1.75486e-11 -1.28466e-11 -163.97 3.77725e-11 -11.6443 -152.19 3.57189e-11 -23.2991 -140.42 3.37972e-11 -34.9642 -128.661 3.14873e-11 -46.6398 -116.913 2.94489e-11 -58.3259 -105.174 2.72617e-11 -70.0223 -93.4466 2.52331e-11 -81.7293 -81.7293 2.31717e-11 -93.4466 -70.0223 2.29716e-11 -105.174 -58.3259 2.28288e-11 -116.913 -46.6398 2.27303e-11 -128.661 -34.9642 2.27427e-11 -140.42 -23.2991 2.2629e-11 -152.19 -11.6443 2.2343e-11 -163.97 -7.01448e-11 2.21725e-11 181.957 6.82121e-13 -1.82396e-11 169.106 13.1428 -1.93285e-11 156.233 26.2632 -2.05951e-11 143.337 39.3611 -2.17479e-11 130.418 52.4366 -2.28333e-11 117.478 65.4897 -2.40146e-11 104.514 78.5203 -2.51319e-11 91.5285 91.5285 -2.63078e-11 78.5203 104.514 -2.74678e-11 65.4897 117.478 -2.87042e-11 52.4366 130.418 -2.99067e-11 39.3611 143.337 -3.10969e-11 26.2632 156.233 -3.24327e-11 13.1428 169.106 -3.35731e-11 -4.3201e-11 181.957 -3.47029e-11 169.106 -13.1428 -1.4304e-11 156.214 2.14939e-13 -1.54808e-11 143.302 13.1236 -1.66781e-11 130.37 26.2279 -1.77869e-11 117.42 39.313 -1.89171e-11 104.45 52.3789 -2.01397e-11 91.4612 65.4256 -2.12539e-11 78.453 78.453 -2.24445e-11 65.4256 91.4612 -2.36616e-11 52.3789 104.45 -2.50368e-11 39.313 117.42 -2.62761e-11 26.2279 130.37 -2.74906e-11 13.1236 143.302 -2.892e-11 -3.1136e-11 156.214 -3.00758e-11 -13.1428 169.106 -3.12884e-11 156.233 -26.2632 -1.01871e-11 143.302 -13.1236 -1.13835e-11 130.354 2.20268e-13 -1.26438e-11 117.391 13.1075 -1.38402e-11 104.412 26.1991 -1.49495e-11 91.4163 39.2746 -1.62258e-11 78.4049 52.334 -1.73404e-11 65.3775 65.3775 -1.85848e-11 52.334 78.4049 -1.98794e-11 39.2746 91.4163 -2.12576e-11 26.1991 104.412 -2.26171e-11 13.1075 117.391 -2.39251e-11 -2.14726e-11 130.354 -2.53255e-11 -13.1236 143.302 -2.66957e-11 -26.2632 156.233 -2.80978e-11 143.337 -39.3611 -6.30121e-12 130.37 -26.2279 -7.50445e-12 117.391 -13.1075 -8.80095e-12 104.399 5.68434e-14 -9.86142e-12 91.3938 13.0947 -1.11311e-11 78.376 26.1766 -1.22675e-11 65.3454 39.2457 -1.35318e-11 52.302 52.302 -1.4725e-11 39.2457 65.3454 -1.60862e-11 26.1766 78.376 -1.75059e-11 13.0947 91.3938 -1.88551e-11 -1.39266e-11 104.399 -2.03152e-11 -13.1075 117.391 -2.17363e-11 -26.2279 130.37 -2.31841e-11 -39.3611 143.337 -2.45732e-11 130.418 -52.4366 -2.38687e-12 117.42 -39.313 -3.62075e-12 104.412 -26.1991 -4.83464e-12 91.3938 -13.0947 -5.97592e-12 78.3664 -1.42109e-13 -7.19803e-12 65.3294 13.0851 -8.40949e-12 52.2827 26.1606 -9.58186e-12 39.2265 39.2265 -1.08066e-11 26.1606 52.2827 -1.2248e-11 13.0851 65.3294 -1.37977e-11 -8.72546e-12 78.3664 -1.52786e-11 -13.0947 91.3938 -1.67462e-11 -26.1991 104.412 -1.82254e-11 -39.313 117.42 -1.97205e-11 -52.4366 130.418 -2.11303e-11 117.478 -65.4897 1.58254e-12 104.45 -52.3789 4.18835e-13 91.4163 -39.2746 -8.99192e-13 78.376 -26.1766 -2.07711e-12 65.3294 -13.0851 -3.29077e-12 52.2763 -1.13687e-13 -4.50178e-12 39.2169 13.0787 -5.72077e-12 26.151 26.151 -6.93177e-12 13.0787 39.2169 -8.46982e-12 -5.64171e-12 52.2763 -1.00172e-11 -13.0851 65.3294 -1.15823e-11 -26.1766 78.376 -1.30742e-11 -39.2746 91.4163 -1.47037e-11 -52.3789 104.45 -1.62622e-11 -65.4897 117.478 -1.7746e-11 104.514 -78.5203 5.51198e-12 91.4612 -65.4256 4.29266e-12 78.4049 -52.334 3.02538e-12 65.3454 -39.2457 1.83903e-12 52.2827 -26.1606 6.15153e-13 39.2169 -13.0787 -5.87849e-13 26.1478 -3.41061e-13 -1.82549e-12 13.0755 13.0755 -3.07112e-12 -5.25802e-12 26.1478 -4.67819e-12 -13.0787 39.