<?xml version="1.0"?> 
<VTKFile type="StructuredGrid" version="0.1"> 
<StructuredGrid WholeExtent="0 14 0 14 0 29"> 
<Piece Extent="0 14 0 14 0 29"> 
<PointData>
<DataArray type="Float32" Name="hfield" format="ascii" NumberOfComponents="3"> 
-1.56084 0.762908 0.235645 -1.51724 0.915931 0.0714367 -1.33221 1.07229 -0.0587631 -1.04087 1.2333 -0.164528 -0.664369 1.40041 -0.252146 -0.215187 1.5752 -0.32592 0.300001 1.75946 -0.388889 0.878717 1.95525 -0.443266 0.661117 4.59007 -0.127962 0.440811 7.36726 0.149483 0.238361 10.3243 0.395501 0.072886 13.5067 0.615147 -0.0364119 16.9703 0.812444 -0.0687429 20.786 0.990639 2.33924e-14 25.0446 1.15238 -1.41221 0.728264 0.175828 -1.26602 0.728413 0.0538766 -1.03601 0.741998 -0.0446298 -0.74176 0.766436 -0.125492 -0.39537 0.800134 -0.192745 -0.00398318 0.842177 -0.249285 0.428787 0.892149 -0.297243 0.902043 0.950031 -0.338221 0.284198 3.73383 -0.0973867 -0.308749 6.6402 0.113392 -0.867675 9.71307 0.298852 -1.38401 13.0055 0.462789 -1.84891 16.5836 0.608281 -2.25237 20.5317 0.737851 -2.58216 24.9607 0.853585 -1.28934 0.719384 0.132055 -1.0728 0.612647 0.0406981 -0.809624 0.524065 -0.0338325 -0.510591 0.449448 -0.0953043 -0.182275 0.385717 -0.146446 0.171696 0.33054 -0.189282 0.549889 0.282102 -0.225346 0.952654 0.238945 -0.255823 -0.0224285 3.06617 -0.0734454 -0.961694 5.99657 0.0852188 -1.86624 9.07771 0.223713 -2.73802 12.3673 0.344923 -3.57971 15.9379 0.451219 -4.39481 19.8835 0.544569 -5.18775 24.3302 0.62662 -1.18422 0.728256 0.0977465 -0.919726 0.545094 0.030217 -0.633444 0.382579 -0.0251606 -0.330704 0.235844 -0.0709112 -0.0144332 0.101042 -0.108916 0.314186 -0.0249858 -0.140605 0.655335 -0.144957 -0.167086 1.01038 -0.261322 -0.189227 -0.283542 2.53641 -0.0541691 -1.54111 5.41762 0.0626446 -2.77277 8.43126 0.163846 -3.99082 11.6371 0.251604 -5.21022 15.1107 0.327717 -6.44984 18.9517 0.393694 -7.73448 23.2954 0.450808 -1.09263 0.750652 0.0692818 -0.796853 0.512628 0.0214508 -0.496161 0.296529 -0.0178725 -0.19226 0.0972845 -0.0503638 0.114442 -0.0893009 -0.0772966 0.424525 -0.266844 -0.0996556 0.739393 -0.438611 -0.118214 1.06122 -0.607707 -0.133588 -0.517686 2.10839 -0.0381445 -2.06626 4.88816 0.0439866 -3.60343 7.78015 0.114684 -5.15147 10.8438 0.175508 -6.73774 14.1548 0.227764 -8.39741 17.8136 0.272552 -10.1778 21.959 0.310808 -1.01219 0.78421 0.0444435 -0.698436 0.507572 0.0137705 -0.391167 0.253107 -0.0114751 -0.0895989 0.015871 -0.0323251 0.207646 -0.208377 -0.0495736 0.502426 -0.423423 -0.0638417 0.79706 -0.632809 -0.075622 1.09436 -0.840016 -0.0853101 -0.739656 1.75542 -0.0243115 -2.55362 4.39513 0.0279735 -4.37407 7.12572 0.0727586 -6.23257 10.0043 0.111057 -8.16844 13.1036 0.143722 -10.233 16.521 0.171476 -12.4968 20.392 0.194934 -0.941588 0.827597 0.0217294 -0.621221 0.525404 0.00673476 -0.314854 0.244422 -0.00561198 -0.0199568 -0.0198585 -0.0158041 0.266105 -0.271446 -0.0242242 0.5461 -0.514046 -0.0311731 0.822997 -0.751233 -0.0368911 1.10007 -0.986625 -0.0415719 -0.962195 1.45713 -0.0118324 -3.01764 3.92665 0.013596 -5.09947 6.46529 0.0353097 -7.24758 9.12588 0.0538084 -9.51226 11.9759 0.0695139 -11.96 15.1055 0.0827842 -14.6832 18.6408 0.0939252 -0.880127 0.880127 -3.29053e-12 -0.563627 0.563627 -2.16181e-12 -0.265791 0.265791 -1.06704e-12 0.0171102 -0.0171102 -1.43543e-13 0.288565 -0.288565 6.33311e-13 0.551943 -0.551943 1.16063e-12 0.810631 -0.810631 1.61647e-12 1.06817 -1.06817 2.01672e-12 -1.19726 1.19726 1.60001e-12 -3.47131 3.47131 1.13023e-12 -5.79281 5.79281 8.47619e-13 -8.20881 8.20881 5.04423e-13 -10.7791 10.7791 3.72585e-13 -13.5835 13.5835 3.802e-14 -16.7332 16.7332 -1.87756e-13 -0.827597 0.941588 -0.0217294 -0.525404 0.621221 -0.00673476 -0.244422 0.314854 0.00561198 0.0198585 0.0199568 0.0158041 0.271446 -0.266105 0.0242242 0.514046 -0.5461 0.0311731 0.751233 -0.822997 0.0368911 0.986625 -1.10007 0.0415719 -1.45713 0.962195 0.0118324 -3.92665 3.01764 -0.013596 -6.46529 5.09947 -0.0353097 -9.12588 7.24758 -0.0538084 -11.9759 9.51226 -0.0695139 -15.1055 11.96 -0.0827842 -18.6408 14.6832 -0.0939252 -0.78421 1.01219 -0.0444435 -0.507572 0.698436 -0.0137705 -0.253107 0.391167 0.0114751 -0.015871 0.0895989 0.0323251 0.208377 -0.207646 0.0495736 0.423423 -0.502426 0.0638417 0.632809 -0.79706 0.075622 0.840016 -1.09436 0.0853101 -1.75542 0.739656 0.0243115 -4.39513 2.55362 -0.0279735 -7.12572 4.37407 -0.0727586 -10.0043 6.23257 -0.111057 -13.1036 8.16844 -0.143722 -16.521 10.233 -0.171476 -20.392 12.4968 -0.194934 -0.750652 1.09263 -0.0692818 -0.512628 0.796853 -0.0214508 -0.296529 0.496161 0.0178725 -0.0972845 0.19226 0.0503638 0.0893009 -0.114442 0.0772966 0.266844 -0.424525 0.0996556 0.438611 -0.739393 0.118214 0.607707 -1.06122 0.133588 -2.10839 0.517686 0.0381445 -4.88816 2.06626 -0.0439866 -7.78015 3.60343 -0.114684 -10.8438 5.15147 -0.175508 -14.1548 6.73774 -0.227764 -17.8136 8.39741 -0.272552 -21.959 10.1778 -0.310808 -0.728256 1.18422 -0.0977465 -0.545094 0.919726 -0.030217 -0.382579 0.633444 0.0251606 -0.235844 0.330704 0.0709112 -0.101042 0.0144332 0.108916 0.0249858 -0.314186 0.140605 0.144957 -0.655335 0.167086 0.261322 -1.01038 0.189227 -2.53641 0.283542 0.0541691 -5.41762 1.54111 -0.0626446 -8.43126 2.77277 -0.163846 -11.6371 3.99082 -0.251604 -15.1107 5.21022 -0.327717 -18.9517 6.44984 -0.393694 -23.2954 7.73448 -0.450808 -0.719384 1.28934 -0.132055 -0.612647 1.0728 -0.0406981 -0.524065 0.809624 0.0338325 -0.449448 0.510591 0.0953043 -0.385717 0.182275 0.146446 -0.33054 -0.171696 0.189282 -0.282102 -0.549889 0.225346 -0.238945 -0.952654 0.255823 -3.06617 0.0224285 0.0734454 -5.99657 0.961694 -0.0852188 -9.07771 1.86624 -0.223713 -12.3673 2.73802 -0.344923 -15.9379 3.57971 -0.451219 -19.8835 4.39481 -0.544569 -24.3302 5.18775 -0.62662 -0.728264 1.41221 -0.175828 -0.728413 1.26602 -0.0538766 -0.741998 1.03601 0.0446298 -0.766436 0.74176 0.125492 -0.800134 0.39537 0.192745 -0.842177 0.00398318 0.249285 -0.892149 -0.428787 0.297243 -0.950031 -0.902043 0.338221 -3.73383 -0.284198 0.0973867 -6.6402 0.308749 -0.113392 -9.71307 0.867675 -0.298852 -13.0055 1.38401 -0.462789 -16.5836 1.84891 -0.608281 -20.5317 2.25237 -0.737851 -24.9607 2.58216 -0.853585 -0.762908 1.56084 -0.235645 -0.915931 1.51724 -0.0714367 -1.07229 1.33221 0.0587631 -1.2333 1.04087 0.164528 -1.40041 0.664369 0.252146 -1.5752 0.215187 0.32592 -1.75946 -0.300001 0.388889 -1.95525 -0.878717 0.443266 -4.59007 -0.661117 0.127962 -7.36726 -0.440811 -0.149483 -10.3243 -0.238361 -0.395501 -13.5067 -0.072886 -0.615147 -16.9703 0.0364119 -0.812444 -20.786 0.0687429 -0.990639 -25.0446 -2.33924e-14 -1.15238 -3.43235 -80.2052 1.64634 -4.15239 -86.8533 1.27422 -4.62437 -93.5207 1.10758 -5.06708 -100.179 1.08696 -5.62041 -106.8 1.17845 -6.37971 -113.356 1.36255 -7.41345 -119.823 1.62852 -8.77298 -126.182 1.9712 -8.24747 -136.887 2.33607 -7.20961 -147.467 2.53184 -5.85164 -157.908 2.53982 -4.31544 -168.213 2.34502 -2.70436 -178.405 1.93469 -1.09124 -188.533 1.29689 0.476121 -198.679 0.418909 2.73206 -74.4213 0.39535 3.62471 -81.2955 0.281508 4.52756 -88.1161 0.280391 5.31118 -94.8643 0.363305 5.8866 -101.517 0.513998 6.18966 -108.048 0.723738 6.17251 -114.435 0.988621 5.79855 -120.655 1.30802 8.23276 -133.046 1.56674 10.7623 -145.098 1.70228 13.247 -156.801 1.70518 15.5841 -168.159 1.56979 17.7006 -179.194 1.29316 19.5482 -189.953 0.873909 21.0993 -200.522 0.311128 9.18499 -68.9261 -0.251538 11.3142 -75.8179 -0.242318 13.3294 -82.6166 -0.168467 15.1451 -89.3023 -0.0449522 16.6984 -95.8505 0.120212 17.942 -102.235 0.323428 18.8393 -108.43 0.564058 19.3623 -114.413 0.843552 23.6609 -127.756 1.0229 27.7494 -140.601 1.11398 31.5244 -152.932 1.11333 34.9123 -164.752 1.02104 37.8645 -176.079 0.83979 40.3542 -186.962 0.574018 42.3745 -197.484 0.229185 15.715 -63.5079 -0.525627 18.8275 -70.2912 -0.465177 21.762 -76.9531 -0.366969 24.4556 -83.4703 -0.239247 26.8595 -89.8162 -0.0859816 28.9354 -95.9625 0.0916696 30.6528 -101.882 0.294488 31.988 -107.552 0.524657 38.0552 -121.284 0.645446 43.6903 -134.396 0.704526 48.816 -146.87 0.701943 53.3797 -158.703 0.640716 57.3517 -169.911 0.526108 60.7236 -180.543 0.365021 63.5084 -190.684 0.165468 22.2043 -58.049 -0.562291 26.1178 -64.6366 -0.491227 29.8229 -71.0784 -0.398284 33.2696 -77.348 -0.288115 36.4167 -83.4163 -0.16265 39.2304 -89.2539 -0.0219815 41.6831 -94.8329 0.135085 43.7532 -100.129 0.31069 51.4605 -113.809 0.388539 58.5779 -126.781 0.425083 65.0457 -139.023 0.421939 70.8265 -150.527 0.383017 75.9049 -161.311 0.313978 80.2878 -171.419 0.221801 84.0066 -180.937 0.114447 28.5846 -52.481 -0.448409 33.1611 -58.8034 -0.390285 37.5194 -64.9579 -0.320179 41.6168 -70.915 -0.240632 45.4162 -76.6439 -0.152534 48.8861 -82.1145 -0.0556397 51.9997 -87.2985 0.0510975 54.736 -92.1717 0.169315 63.9335 -105.449 0.215324 72.4334 -117.96 0.236091 80.1881 -129.678 0.233428 87.1707 -140.595 0.210697 93.3764 -150.724 0.172448 98.8247 -160.109 0.124145 103.563 -168.835 0.0719602 34.8161 -46.7643 -0.2451 39.9477 -52.758 -0.213072 44.8641 -58.5638 -0.175758 49.5269 -64.1497 -0.134287 53.9016 -69.4835 -0.0890003 57.9573 -74.5347 -0.0396947 61.6675 -79.2756 0.0142212 65.0103 -83.6825 0.073625 75.5307 -96.2704 0.0948981 85.2869 -108.063 0.104224 94.2395 -119.029 0.102725 102.369 -129.159 0.0923024 109.677 -138.462 0.0754575 116.194 -146.981 0.0551544 121.981 -154.796 0.0347282 40.8781 -40.8781 5.40012e-13 46.4776 -46.4776 2.04531e-13 51.8727 -51.8727 -1.21431e-13 57.0287 -57.0287 -3.14748e-13 61.9124 -61.9124 -4.50751e-13 66.4931 -66.4931 -6.23501e-13 70.7437 -70.7437 -7.22977e-13 74.6414 -74.6414 -8.5798e-13 86.2996 -86.2996 -7.42517e-13 97.1621 -97.1621 -4.83169e-13 107.195 -107.195 -3.76588e-13 116.383 -116.383 -2.06057e-13 124.735 -124.735 -1.74083e-13 132.286 -132.286 -1.24345e-13 139.11 -139.11 -8.68997e-14 46.7643 -34.8161 0.2451 52.758 -39.9477 0.213072 58.5638 -44.8641 0.175758 64.1497 -49.5269 0.134287 69.4835 -53.9016 0.0890003 74.5347 -57.9573 0.0396947 79.2756 -61.6675 -0.0142212 83.6825 -65.0103 -0.073625 96.2704 -75.5307 -0.0948981 108.063 -85.2869 -0.104224 119.029 -94.2395 -0.102725 129.159 -102.369 -0.0923024 138.462 -109.677 -0.0754575 146.981 -116.194 -0.0551544 154.796 -121.981 -0.0347282 52.481 -28.5846 0.448409 58.8034 -33.1611 0.390285 64.9579 -37.5194 0.320179 70.915 -41.6168 0.240632 76.6439 -45.4162 0.152534 82.1145 -48.8861 0.0556397 87.2985 -51.9997 -0.0510975 92.1717 -54.736 -0.169315 105.449 -63.9335 -0.215324 117.96 -72.4334 -0.236091 129.678 -80.1881 -0.233428 140.595 -87.1707 -0.210697 150.724 -93.3764 -0.172448 160.109 -98.8247 -0.124145 168.835 -103.563 -0.0719602 58.049 -22.2043 0.562291 64.6366 -26.1178 0.491227 71.0784 -29.8229 0.398284 77.348 -33.2696 0.288115 83.4163 -36.4167 0.16265 89.2539 -39.2304 0.0219815 94.8329 -41.6831 -0.135085 100.129 -43.7532 -0.31069 113.809 -51.4605 -0.388539 126.781 -58.5779 -0.425083 139.023 -65.0457 -0.421939 150.527 -70.8265 -0.383017 161.311 -75.9049 -0.313978 171.419 -80.2878 -0.221801 180.937 -84.0066 -0.114447 63.5079 -15.715 0.525627 70.2912 -18.8275 0.465177 76.9531 -21.762 0.366969 83.4703 -24.4556 0.239247 89.8162 -26.8595 0.0859816 95.9625 -28.9354 -0.0916696 101.882 -30.6528 -0.294488 107.552 -31.988 -0.524657 121.284 -38.0552 -0.645446 134.396 -43.6903 -0.704526 146.87 -48.816 -0.701943 158.703 -53.3797 -0.640716 169.911 -57.3517 -0.526108 180.543 -60.7236 -0.365021 190.684 -63.5084 -0.165468 68.9261 -9.18499 0.251538 75.8179 -11.3142 0.242318 82.6166 -13.3294 0.168467 89.3023 -15.1451 0.0449522 95.8505 -16.6984 -0.120212 102.235 -17.942 -0.323428 108.43 -18.8393 -0.564058 114.413 -19.3623 -0.843552 127.756 -23.6609 -1.0229 140.601 -27.7494 -1.11398 152.932 -31.5244 -1.11333 164.752 -34.9123 -1.02104 176.079 -37.8645 -0.83979 186.962 -40.3542 -0.574018 197.484 -42.3745 -0.229185 74.4213 -2.73206 -0.39535 81.2955 -3.62471 -0.281508 88.1161 -4.52756 -0.280391 94.8643 -5.31118 -0.363305 101.517 -5.8866 -0.513998 108.048 -6.18966 -0.723738 114.435 -6.17251 -0.988621 120.655 -5.79855 -1.30802 133.046 -8.23276 -1.56674 145.098 -10.7623 -1.70228 156.801 -13.247 -1.70518 168.159 -15.5841 -1.56979 179.194 -17.7006 -1.29316 189.953 -19.5482 -0.873909 200.522 -21.0993 -0.311128 80.2052 3.43235 -1.64634 86.8533 4.15239 -1.27422 93.5207 4.62437 -1.10758 100.179 5.06708 -1.08696 106.8 5.62041 -1.17845 113.356 6.37971 -1.36255 119.823 7.41345 -1.62852 126.182 8.77298 -1.9712 136.887 8.24747 -2.33607 147.467 7.20961 -2.53184 157.908 5.85164 -2.53982 168.213 4.31544 -2.34502 178.405 2.70436 -1.93469 188.533 1.09124 -1.29689 198.679 -0.476121 -0.418909 -5.37803 -143.695 7.01239 -5.01834 -160.613 2.06181 -3.61705 -177.919 -0.656699 -2.10574 -195.67 -2.12368 -1.0507 -213.933 -2.85064 -0.847197 -232.793 -3.11544 -1.80737 -252.365 -3.06653 -4.20641 -272.807 -2.77325 -3.9166 -291.343 1.65697 -3.14328 -311.164 4.46286 -2.54852 -332.644 5.74341 -2.71798 -356.3 5.58628 -4.21556 -382.843 4.06414 -7.64067 -413.279 1.22713 -13.7022 -449.051 -2.91003 6.56879 -134.346 5.47276 8.47931 -151.29 1.48639 11.2332 -168.309 -0.758381 14.1319 -185.484 -1.97063 16.7232 -202.875 -2.5458 18.6823 -220.544 -2.71151 19.755 -238.57 -2.59687 19.7267 -257.065 -2.26813 24.1909 -279.101 1.32299 28.6937 -301.881 3.54287 32.7287 -325.789 4.49448 35.8551 -351.338 4.28583 37.6632 -379.237 3.02615 37.7359 -410.478 0.820508 35.5987 -446.496 -2.2373 18.1755 -124.656 4.23387 21.8028 -141.401 1.06117 26.069 -158.023 -0.76021 30.4533 -174.592 -1.74414 34.598 -191.149 -2.19348 38.2385 -207.725 -2.29132 41.1677 -224.368 -2.14696 43.2169 -241.149 -1.82073 51.766 -265.713 1.03074 59.9886 -290.537 2.75346 67.5082 -315.967 3.44646 74.0143 -342.476 3.22271 79.243 -370.721 2.20505 82.9573 -401.634 0.522022 84.9212 -436.571 -1.69609 29.5295 -114.714 3.19667 34.9479 -131.011 0.742358 40.813 -147.078 -0.687496 46.7353 -162.957 -1.46012 52.4318 -178.657 -1.80189 57.6858 -194.182 -1.85531 62.3274 -209.546 -1.70911 66.2223 -224.787 -1.41506 78.6722 -250.954 0.775848 90.504 -276.962 2.07242 101.447 -303.098 2.56284 111.301 -329.767 2.35239 119.934 -357.552 1.55956 127.273 -387.295 0.312483 133.307 -420.234 -1.25335 40.6849 -104.573 2.2958 47.9005 -120.171 0.498562 55.3903 -135.504 -0.559964 62.8601 -150.572 -1.13209 70.0842 -165.353 -1.37892 76.8835 -179.821 -1.40516 83.1168 -193.961 -1.27814 88.6754 -207.782 -1.03881 104.746 -234.674 0.552588 119.98 -261.063 1.47812 134.19 -287.163 1.80924 147.271 -313.305 1.63362 159.201 -339.987 1.0516 170.055 -367.946 0.173366 180.023 -398.287 -0.882591 51.6753 -94.2677 1.4851 60.6402 -108.927 0.305949 69.728 -123.336 -0.393787 78.715 -137.454 -0.772088 87.4193 -151.226 -0.932404 95.6916 -164.598 -0.94354 103.413 -177.531 -0.850778 110.495 -190.007 -0.682449 129.813 -216.794 0.354125 148.147 -242.815 0.949037 165.382 -268.21 1.15253 181.492 -293.234 1.02717 196.552 -318.297 0.645249 210.765 -344.03 0.0866502 224.5 -371.398 -0.562078 62.5214 -83.8176 0.72947 73.1421 -97.3172 0.145289 83.756 -110.62 -0.202916 94.1939 -123.644 -0.391203 104.309 -136.302 -0.470144 113.977 -148.517 -0.473849 123.098 -160.226 -0.425081 131.6 -171.392 -0.338316 153.696 -197.3 0.172718 174.741 -222.263 0.463585 194.68 -246.352 0.560193 213.558 -269.747 0.495074 231.536 -292.774 0.305955 248.933 -315.961 0.0346703 266.277 -340.128 -0.273344 73.2343 -73.2343 -3.93374e-12 85.378 -85.378 -2.65964e-12 97.4077 -97.4077 -1.54893e-12 109.199 -109.199 -8.11018e-13 120.637 -120.637 -1.71307e-13 131.619 -131.619 3.48166e-13 142.064 -142.064 6.75904e-13 151.916 -151.916 8.68194e-13 176.236 -176.236 4.68958e-13 199.517 -199.517 8.17124e-14 221.764 -221.764 -8.34888e-14 243.089 -243.089 -2.95763e-13 263.738 -263.738 -3.49942e-13 284.131 -284.131 -3.94795e-13 304.95 -304.95 -3.66499e-13 83.8176 -62.5214 -0.72947 97.3172 -73.1421 -0.145289 110.62 -83.756 0.202916 123.644 -94.1939 0.391203 136.302 -104.309 0.470144 148.517 -113.977 0.473849 160.226 -123.098 0.425081 171.392 -131.6 0.338316 197.3 -153.696 -0.172718 222.263 -174.741 -0.463585 246.352 -194.68 -0.560193 269.747 -213.558 -0.495074 292.774 -231.536 -0.305955 315.961 -248.933 -0.0346703 340.128 -266.277 0.273344 94.2677 -51.6753 -1.4851 108.927 -60.6402 -0.305949 123.336 -69.728 0.393787 137.454 -78.715 0.772088 151.226 -87.4193 0.932404 164.598 -95.6916 0.94354 177.531 -103.413 0.850778 190.007 -110.495 0.682449 216.794 -129.813 -0.354125 242.815 -148.147 -0.949037 268.21 -165.382 -1.15253 293.234 -181.492 -1.02717 318.297 -196.552 -0.645249 344.03 -210.765 -0.0866502 371.398 -224.5 0.562078 104.573 -40.6849 -2.2958 120.171 -47.9005 -0.498562 135.504 -55.3903 0.559964 150.572 -62.8601 1.13209 165.353 -70.0842 1.37892 179.821 -76.8835 1.40516 193.961 -83.1168 1.27814 207.782 -88.6754 1.03881 234.674 -104.746 -0.552588 261.063 -119.98 -1.47812 287.163 -134.19 -1.80924 313.305 -147.271 -1.63362 339.987 -159.201 -1.0516 367.946 -170.055 -0.173366 398.287 -180.023 0.882591 114.714 -29.5295 -3.19667 131.011 -34.9479 -0.742358 147.078 -40.813 0.687496 162.957 -46.7353 1.46012 178.657 -52.4318 1.80189 194.182 -57.6858 1.85531 209.546 -62.3274 1.70911 224.787 -66.2223 1.41506 250.954 -78.6722 -0.775848 276.962 -90.504 -2.07242 303.098 -101.447 -2.56284 329.767 -111.301 -2.35239 357.552 -119.934 -1.55956 387.295 -127.273 -0.312483 420.234 -133.307 1.25335 124.656 -18.1755 -4.23387 141.401 -21.8028 -1.06117 158.023 -26.069 0.76021 174.592 -30.4533 1.74414 191.149 -34.598 2.19348 207.725 -38.2385 2.29132 224.368 -41.1677 2.14696 241.149 -43.2169 1.82073 265.713 -51.766 -1.03074 290.537 -59.9886 -2.75346 315.967 -67.5082 -3.44646 342.476 -74.0143 -3.22271 370.721 -79.243 -2.20505 401.634 -82.9573 -0.522022 436.571 -84.9212 1.69609 134.346 -6.56879 -5.47276 151.29 -8.47931 -1.48639 168.309 -11.2332 0.758381 185.484 -14.1319 1.97063 202.875 -16.7232 2.5458 220.544 -18.6823 2.71151 238.57 -19.755 2.59687 257.065 -19.7267 2.26813 279.101 -24.1909 -1.32299 301.881 -28.6937 -3.54287 325.789 -32.7287 -4.49448 351.338 -35.8551 -4.28583 379.237 -37.6632 -3.02615 410.478 -37.7359 -0.820508 446.496 -35.5987 2.2373 143.695 5.37803 -7.01239 160.613 5.01834 -2.06181 177.919 3.61705 0.656699 195.67 2.10574 2.12368 213.933 1.0507 2.85064 232.793 0.847197 3.11544 252.365 1.80737 3.06653 272.807 4.20641 2.77325 291.343 3.9166 -1.65697 311.164 3.14328 -4.46286 332.644 2.54852 -5.74341 356.3 2.71798 -5.58628 382.843 4.21556 -4.06414 413.279 7.64067 -1.22713 449.051 13.7022 2.91003 6.56275 -163.705 9.50446 0.120341 -184.081 2.91673 -1.70103 -204.827 -0.343774 -1.36035 -226.049 -1.90801 -0.266109 -247.86 -2.60317 0.663113 -270.378 -2.86578 0.753775 -293.735 -2.91903 -0.54341 -318.075 -2.85673 -1.20517 -335.915 2.4745 -1.32732 -354.849 5.80226 -1.62068 -375.027 7.26242 -2.69283 -396.625 6.97539 -5.09706 -419.846 5.0522 -9.36903 -444.931 1.59914 -16.0572 -472.162 -3.27822 14.79 -149.483 7.51354 13.2291 -170.811 2.16841 14.7434 -191.773 -0.614089 17.7106 -212.62 -2.01576 21.1432 -233.541 -2.67148 24.3742 -254.703 -2.93077 26.9093 -276.275 -2.97886 28.3487 -298.445 -2.89768 31.6259 -318.926 1.4053 35.0217 -340.24 4.0608 37.9924 -362.719 5.21129 40.0703 -386.761 4.99494 40.8227 -412.867 3.54611 39.8157 -441.678 0.9953 36.5741 -474.047 -2.53146 23.8198 -136.064 5.87495 26.4177 -157.676 1.59754 30.9829 -178.521 -0.718014 36.4338 -198.874 -1.92892 42.0808 -218.934 -2.51712 47.4478 -238.879 -2.75731 52.1829 -258.886 -2.79967 56.0097 -279.16 -2.71368 62.9619 -301.326 0.694763 69.7337 -324.039 2.77658 75.9581 -347.748 3.66747 81.3386 -373.016 3.50547 85.6213 -400.581 2.4289 88.5693 -431.444 0.574169 89.9344 -467.027 -1.92612 33.4404 -123.236 4.47409 39.6388 -144.61 1.15239 46.9882 -165.033 -0.700242 54.7654 -184.74 -1.6968 62.4937 -203.909 -2.19437 69.8414 -222.7 -2.40225 76.57 -241.283 -2.43789 82.5041 -259.857 -2.35768 92.833 -282.894 0.258442 102.776 -306.194 1.84213 112.142 -330.27 2.51232 120.821 -355.788 2.39357 128.778 -383.651 1.61292 136.049 -415.142 0.297425 142.76 -452.167 -1.42755 43.5201 -110.867 3.23466 52.8609 -131.571 0.795766 62.7379 -151.281 -0.594681 72.6716 -170.171 -1.35819 82.3397 -188.374 -1.74694 91.5214 -206.019 -1.91199 100.068 -223.255 -1.93983 107.888 -240.263 -1.87326 121.267 -263.471 0.0267164 134.131 -286.68 1.16861 146.456 -310.422 1.64735 158.321 -335.407 1.56419 169.926 -362.629 1.02356 181.632 -393.543 0.131041 194.046 -430.394 -1.00756 53.9762 -98.8739 2.10233 66.0639 -118.529 0.499438 78.2162 -137.251 -0.428252 90.1263 -155.136 -0.944854 101.587 -172.267 -1.21137 112.463 -188.733 -1.32573 122.68 -204.649 -1.34486 132.213 -220.174 -1.2975 148.291 -242.94 -0.0595963 163.791 -265.484 0.680453 178.843 -288.316 0.98857 193.703 -312.14 0.935811 208.807 -337.96 0.596026 224.853 -367.287 0.044407 242.979 -402.511 -0.642708 64.7578 -87.2067 1.03558 79.2354 -105.466 0.240691 93.4122 -122.931 -0.223418 107.11 -139.619 -0.483985 120.212 -155.55 -0.619434 132.652 -170.77 -0.67791 144.416 -185.356 -0.687645 155.535 -199.431 -0.663092 173.934 -221.213 -0.0525991 191.755 -242.599 0.311187 209.261 -264.044 0.461997 226.869 -286.195 0.436402 245.227 -309.998 0.27256 265.348 -336.898 0.00949228 288.881 -369.221 -0.312859 75.8375 -75.8375 -2.16613e-12 92.3695 -92.3695 -1.29161e-12 108.318 -108.318 -6.88449e-13 123.61 -123.61 -2.22489e-13 138.201 -138.201 2.88658e-13 152.085 -152.085 5.05374e-13 165.296 -165.296 7.8515e-13 177.916 -177.916 1.04095e-12 198.228 -198.228 8.2423e-13 218.024 -218.024 5.64881e-13 237.675 -237.675 3.62377e-13 257.731 -257.731 2.59348e-13 279.016 -279.016 5.50671e-14 302.801 -302.801 -9.9476e-14 331.151 -331.151 -2.50489e-13 87.2067 -64.7578 -1.03558 105.466 -79.2354 -0.240691 122.931 -93.4122 0.223418 139.619 -107.11 0.483985 155.55 -120.212 0.619434 170.77 -132.652 0.67791 185.356 -144.416 0.687645 199.431 -155.535 0.663092 221.213 -173.934 0.0525991 242.599 -191.755 -0.311187 264.044 -209.261 -0.461997 286.195 -226.869 -0.436402 309.998 -245.227 -0.27256 336.898 -265.348 -0.00949228 369.221 -288.881 0.312859 98.8739 -53.9762 -2.10233 118.529 -66.0639 -0.499438 137.251 -78.2162 0.428252 155.136 -90.1263 0.944854 172.267 -101.587 1.21137 188.733 -112.463 1.32573 204.649 -122.68 1.34486 220.174 -132.213 1.2975 242.94 -148.291 0.0595963 265.484 -163.791 -0.680453 288.316 -178.843 -0.98857 312.14 -193.703 -0.935811 337.96 -208.807 -0.596026 367.287 -224.853 -0.044407 402.511 -242.979 0.642708 110.867 -43.5201 -3.23466 131.571 -52.8609 -0.795766 151.281 -62.7379 0.594681 170.171 -72.6716 1.35819 188.374 -82.3397 1.74694 206.019 -91.5214 1.91199 223.255 -100.068 1.93983 240.263 -107.888 1.87326 263.471 -121.267 -0.0267164 286.68 -134.131 -1.16861 310.422 -146.456 -1.64735 335.407 -158.321 -1.56419 362.629 -169.926 -1.02356 393.543 -181.632 -0.131041 430.394 -194.046 1.00756 123.236 -33.4404 -4.47409 144.61 -39.6388 -1.15239 165.033 -46.9882 0.700242 184.74 -54.7654 1.6968 203.909 -62.4937 2.19437 222.7 -69.8414 2.40225 241.283 -76.57 2.43789 259.857 -82.5041 2.35768 282.894 -92.833 -0.258442 306.194 -102.776 -1.84213 330.27 -112.142 -2.51232 355.788 -120.821 -2.39357 383.651 -128.778 -1.61292 415.142 -136.049 -0.297425 452.167 -142.76 1.42755 136.064 -23.8198 -5.87495 157.676 -26.4177 -1.59754 178.521 -30.9829 0.718014 198.874 -36.4338 1.92892 218.934 -42.0808 2.51712 238.879 -47.4478 2.75731 258.886 -52.1829 2.79967 279.16 -56.0097 2.71368 301.326 -62.9619 -0.694763 324.039 -69.7337 -2.77658 347.748 -75.9581 -3.66747 373.016 -81.3386 -3.50547 400.581 -85.6213 -2.4289 431.444 -88.5693 -0.574169 467.027 -89.9344 1.92612 149.483 -14.79 -7.51354 170.811 -13.2291 -2.16841 191.773 -14.7434 0.614089 212.62 -17.7106 2.01576 233.541 -21.1432 2.67148 254.703 -24.3742 2.93077 276.275 -26.9093 2.97886 298.445 -28.3487 2.89768 318.926 -31.6259 -1.4053 340.24 -35.0217 -4.0608 362.719 -37.9924 -5.21129 386.761 -40.0703 -4.99494 412.867 -40.8227 -3.54611 441.678 -39.8157 -0.9953 474.047 -36.5741 2.53146 163.705 -6.56275 -9.50446 184.081 -0.120341 -2.91673 204.827 1.70103 0.343774 226.049 1.36035 1.90801 247.86 0.266109 2.60317 270.378 -0.663113 2.86578 293.735 -0.753775 2.91903 318.075 0.54341 2.85673 335.915 1.20517 -2.4745 354.849 1.32732 -5.80226 375.027 1.62068 -7.26242 396.625 2.69283 -6.97539 419.846 5.09706 -5.0522 444.931 9.36903 -1.59914 472.162 16.0572 3.27822 8.10039 -173.874 11.7535 1.0672 -197.394 3.47078 -0.820334 -221.17 -0.550571 -0.390286 -245.277 -2.43045 0.768139 -269.795 -3.21768 1.63139 -294.804 -3.4541 1.45798 -320.394 -3.40965 -0.346738 -346.654 -3.19176 -0.840257 -366.485 2.95791 -0.794094 -387.06 6.70816 -1.04044 -408.469 8.25984 -2.27365 -430.81 7.80579 -5.10442 -454.191 5.53839 -10.0974 -478.733 1.65558 -17.7989 -504.573 -3.63382 16.4243 -158.516 9.3072 14.9348 -183.094 2.59369 16.8366 -207.138 -0.835542 20.2602 -230.891 -2.51967 24.0853 -254.518 -3.26632 27.5623 -278.16 -3.51109 30.1404 -301.95 -3.47932 31.38 -326.034 -3.26608 35.1638 -348.811 1.70881 38.9739 -372.009 4.70683 42.1639 -395.902 5.92927 44.1899 -420.804 5.5795 44.565 -447.094 3.86418 42.822 -475.243 0.994354 38.477 -505.845 -2.81304 25.6823 -144.092 7.28646 28.9086 -168.967 1.91952 34.2749 -192.887 -0.93233 40.5298 -216.121 -2.38724 46.8843 -238.852 -3.05988 52.7962 -261.231 -3.29378 57.8667 -283.408 -3.27246 61.7843 -305.553 -3.07732 69.595 -330.229 0.870044 77.0486 -354.997 3.22325 83.6903 -380.25 4.16923 89.1529 -406.466 3.90269 93.1235 -434.245 2.62407 95.3134 -464.374 0.538299 95.4258 -497.919 -2.14484 35.6317 -130.36 5.55407 42.9362 -154.94 1.39004 51.4647 -178.377 -0.890442 60.3733 -200.901 -2.08794 69.1087 -222.67 -2.65883 77.2857 -243.821 -2.86558 84.6257 -264.496 -2.85221 90.9226 -284.868 -2.68528 102.461 -310.541 0.348214 113.361 -335.993 2.13975 123.356 -361.687 2.85071 132.267 -388.203 2.65254 139.991 -416.301 1.72326 146.484 -447.017 0.245653 151.757 -481.829 -1.59236 46.1204 -117.166 4.01806 56.9833 -140.963 0.962937 68.384 -163.584 -0.74793 79.7547 -185.188 -1.66552 90.7123 -205.888 -2.11268 100.991 -225.789 -2.27919 110.408 -245.013 -2.27144 118.843 -263.718 -2.14018 133.769 -289.603 0.0648147 147.86 -314.993 1.35717 161.027 -340.37 1.86453 173.281 -366.363 1.72421 184.743 -393.821 1.07964 195.655 -423.941 0.0787175 206.432 -458.49 -1.12537 57.0527 -104.417 2.61263 71.0273 -127.003 0.605802 85.0163 -148.491 -0.535347 98.6455 -168.954 -1.15629 111.658 -188.448 -1.46338 123.881 -207.038 -1.57984 135.208 -224.814 -1.5758 145.589 -241.909 -1.48548 163.524 -267.315 -0.0480391 180.506 -292.003 0.789736 196.604 -316.436 1.11599 212.009 -341.237 1.02624 227.061 -367.274 0.620722 242.304 -395.798 0.00309262 258.596 -428.705 -0.71853 68.3697 -92.0517 1.28727 85.0546 -113.04 0.292384 101.349 -133.089 -0.278421 117.023 -152.184 -0.591647 131.918 -170.316 -0.747876 145.934 -187.501 -0.807739 159.027 -203.793 -0.80606 171.208 -219.291 -0.760075 191.738 -243.606 -0.0509567 211.269 -267.039 0.360918 230.007 -290.001 0.520509 248.303 -313.063 0.476756 266.696 -337.041 0.281108 286.01 -363.134 -0.013095 307.53 -393.191 -0.349966 80.0394 -80.0394 -9.23089e-13 99.0588 -99.0588 -4.90247e-13 117.375 -117.375 -1.75415e-13 134.873 -134.873 1.05693e-13 151.473 -151.473 3.44613e-13 167.14 -167.14 5.22249e-13 181.88 -181.88 5.64881e-13 195.753 -195.753 7.24754e-13 218.424 -218.424 5.61329e-13 240.121 -240.121 4.61853e-13 261.164 -261.164 2.70006e-13 282.033 -282.033 2.06057e-13 303.431 -303.431 8.52651e-14 326.407 -326.407 -6.03961e-14 352.596 -352.596 -2.00321e-13 92.0517 -68.3697 -1.28727 113.04 -85.0546 -0.292384 133.089 -101.349 0.278421 152.184 -117.023 0.591647 170.316 -131.918 0.747876 187.501 -145.934 0.807739 203.793 -159.027 0.80606 219.291 -171.208 0.760075 243.606 -191.738 0.0509567 267.039 -211.269 -0.360918 290.001 -230.007 -0.520509 313.063 -248.303 -0.476756 337.041 -266.696 -0.281108 363.134 -286.01 0.013095 393.191 -307.53 0.349966 104.417 -57.0527 -2.61263 127.003 -71.0273 -0.605802 148.491 -85.0163 0.535347 168.954 -98.6455 1.15629 188.448 -111.658 1.46338 207.038 -123.881 1.57984 224.814 -135.208 1.5758 241.909 -145.589 1.48548 267.315 -163.524 0.0480391 292.003 -180.506 -0.789736 316.436 -196.604 -1.11599 341.237 -212.009 -1.02624 367.274 -227.061 -0.620722 395.798 -242.304 -0.00309262 428.705 -258.596 0.71853 117.166 -46.1204 -4.01806 140.963 -56.9833 -0.962937 163.584 -68.384 0.74793 185.188 -79.7547 1.66552 205.888 -90.7123 2.11268 225.789 -100.991 2.27919 245.013 -110.408 2.27144 263.718 -118.843 2.14018 289.603 -133.769 -0.0648147 314.993 -147.86 -1.35717 340.37 -161.027 -1.86453 366.363 -173.281 -1.72421 393.821 -184.743 -1.07964 423.941 -195.655 -0.0787175 458.49 -206.432 1.12537 130.36 -35.6317 -5.55407 154.94 -42.9362 -1.39004 178.377 -51.4647 0.890442 200.901 -60.3733 2.08794 222.67 -69.1087 2.65883 243.821 -77.2857 2.86558 264.496 -84.6257 2.85221 284.868 -90.9226 2.68528 310.541 -102.461 -0.348214 335.993 -113.361 -2.13975 361.687 -123.356 -2.85071 388.203 -132.267 -2.65254 416.301 -139.991 -1.72326 447.017 -146.484 -0.245653 481.829 -151.757 1.59236 144.092 -25.6823 -7.28646 168.967 -28.9086 -1.91952 192.887 -34.2749 0.93233 216.121 -40.5298 2.38724 238.852 -46.8843 3.05988 261.231 -52.7962 3.29378 283.408 -57.8667 3.27246 305.553 -61.7843 3.07732 330.229 -69.595 -0.870044 354.997 -77.0486 -3.22325 380.25 -83.6903 -4.16923 406.466 -89.1529 -3.90269 434.245 -93.1235 -2.62407 464.374 -95.3134 -0.538299 497.919 -95.4258 2.14484 158.516 -16.4243 -9.3072 183.094 -14.9348 -2.59369 207.138 -16.8366 0.835542 230.891 -20.2602 2.51967 254.518 -24.0853 3.26632 278.16 -27.5623 3.51109 301.95 -30.1404 3.47932 326.034 -31.38 3.26608 348.811 -35.1638 -1.70881 372.009 -38.9739 -4.70683 395.902 -42.1639 -5.92927 420.804 -44.1899 -5.5795 447.094 -44.565 -3.86418 475.243 -42.822 -0.994354 505.845 -38.477 2.81304 173.874 -8.10039 -11.7535 197.394 -1.0672 -3.47078 221.17 0.820334 0.550571 245.277 0.390286 2.43045 269.795 -0.768139 3.21768 294.804 -1.63139 3.4541 320.394 -1.45798 3.40965 346.654 0.346738 3.19176 366.485 0.840257 -2.95791 387.06 0.794094 -6.70816 408.469 1.04044 -8.25984 430.81 2.27365 -7.80579 454.191 5.10442 -5.53839 478.733 10.0974 -1.65558 504.573 17.7989 3.63382 8.44231 -182.848 13.871 0.764913 -209.136 3.91978 -1.1988