<?xml version="1.0"?> 
<VTKFile type="StructuredGrid" version="0.1"> 
<StructuredGrid WholeExtent="0 14 0 14 0 29"> 
<Piece Extent="0 14 0 14 0 29"> 
<PointData>
<DataArray type="Float32" Name="hfield" format="ascii" NumberOfComponents="3"> 
43.8748 0.967136 -0.042334 46.2764 -0.875209 -0.0278212 48.8554 -1.89033 -0.016314 51.6417 -2.34569 -0.00696649 54.6704 -2.41071 0.000777285 57.9834 -2.19606 0.00729741 61.6314 -1.7755 0.0128627 65.6764 -1.19852 0.0176685 65.9018 -1.8373 0.198787 66.4059 -2.21602 0.358158 67.2244 -2.35519 0.499477 68.4072 -2.26282 0.625647 70.0232 -1.93463 0.73898 72.1687 -1.35257 0.84134 74.9807 -0.481246 0.934247 39.6915 2.91346 -0.0315877 42.6542 2.66299 -0.0209824 45.6937 2.84107 -0.0123903 48.8644 3.31318 -0.0053136 52.2197 3.99249 0.00059417 55.8158 4.82256 0.00558155 59.7161 5.76728 0.00983144 63.9943 6.80474 0.0134815 64.6057 6.31846 0.151288 65.5346 6.03878 0.271686 66.8346 5.95333 0.377419 68.5781 6.05971 0.470689 70.8654 6.36604 0.553278 73.8375 6.89324 0.62665 77.6984 7.67945 0.692012 36.1551 5.5068 -0.0237238 39.3921 6.33613 -0.01585 42.6518 7.36936 -0.00939273 45.9957 8.54221 -0.0040354 49.4836 9.81554 0.000451444 53.1773 11.1672 0.00423806 57.1453 12.5872 0.00745343 61.4671 14.0751 0.0101971 62.2858 13.7828 0.114096 63.4453 13.678 0.204183 65.0107 13.759 0.282527 67.0707 14.034 0.350811 69.749 14.5231 0.410418 73.2222 15.2622 0.462497 77.7511 16.3108 0.508008 32.9396 8.42093 -0.0175603 36.2944 10.0143 -0.0117681 39.6352 11.6783 -0.0069852 43.0247 13.3907 -0.00300254 46.524 15.1428 0.000335752 50.1963 16.936 0.00314818 54.1116 18.78 0.00552643 58.3508 20.6919 0.00754258 59.2525 20.6039 0.0841507 60.504 20.7068 0.150096 62.1766 21.0111 0.206921 64.3689 21.539 0.255899 67.2195 22.3285 0.298084 70.9297 23.44 0.334361 75.8023 24.9693 0.365476 29.8728 11.4838 -0.0124466 33.2498 13.6312 -0.00835406 36.5847 15.7696 -0.00496183 39.9385 17.9038 -0.00213252 43.3711 20.046 0.00023828 46.945 22.215 0.00223131 50.729 24.4358 0.00390998 54.8026 26.7402 0.00532479 55.7025 26.8509 0.0592567 56.9488 27.1694 0.105391 58.615 27.7194 0.144834 60.8031 28.5389 0.178504 63.6584 29.6872 0.207168 67.395 31.2553 0.231476 72.3395 33.3858 0.251976 26.8585 14.5992 -0.00798436 30.1908 17.1539 -0.00536297 33.4591 19.6537 -0.00318576 36.7214 22.122 -0.00136872 40.0347 24.5864 0.000152819 43.4588 27.0785 0.00142943 47.0595 29.6355 0.00250123 50.9129 32.3019 0.00340045 51.7533 32.5978 0.0377674 52.9272 33.1263 0.0670241 54.506 33.9235 0.0918867 56.59 35.044 0.112953 59.3235 36.5694 0.130727 62.9207 38.6237 0.145633 67.7131 41.4012 0.158035 23.8425 17.7129 -0.00390372 27.0742 20.5681 -0.00262287 30.2272 23.3457 -0.00155802 33.3547 26.0821 -0.000669183 36.5095 28.8161 7.46752e-05 39.7469 31.5894 0.000697973 43.1282 34.4489 0.00122019 46.724 37.4498 0.00165705 47.4654 37.9141 0.0183814 48.5201 38.6389 0.0325757 49.9543 39.6721 0.0445925 51.8616 41.0835 0.0547269 54.3782 42.9764 0.0632282 57.7076 45.5066 0.0703077 62.1673 48.9186 0.0761463 20.7968 20.7968 -1.40035e-13 23.8723 23.8723 3.98492e-13 26.8635 26.8635 9.16754e-13 29.8167 29.8167 1.25733e-12 32.7787 32.7787 1.61214e-12 35.7991 35.7991 1.86061e-12 38.9326 38.9326 2.05275e-12 42.2431 42.2431 2.20621e-12 42.8571 42.8571 1.895e-12 43.7592 43.7592 1.68917e-12 45.0077 45.0077 1.56105e-12 46.6857 46.6857 1.21053e-12 48.9153 48.9153 1.01819e-12 51.8798 51.8798 1.01185e-12 55.8664 55.8664 8.58542e-13 17.7129 23.8425 0.00390372 20.5681 27.0742 0.00262287 23.3457 30.2272 0.00155802 26.0821 33.3547 0.000669183 28.8161 36.5095 -7.46752e-05 31.5894 39.7469 -0.000697973 34.4489 43.1282 -0.00122019 37.4498 46.724 -0.00165705 37.9141 47.4654 -0.0183814 38.6389 48.5201 -0.0325757 39.6721 49.9543 -0.0445925 41.0835 51.8616 -0.0547269 42.9764 54.3782 -0.0632282 45.5066 57.7076 -0.0703077 48.9186 62.1673 -0.0761463 14.5992 26.8585 0.00798436 17.1539 30.1908 0.00536297 19.6537 33.4591 0.00318576 22.122 36.7214 0.00136872 24.5864 40.0347 -0.000152819 27.0785 43.4588 -0.00142943 29.6355 47.0595 -0.00250123 32.3019 50.9129 -0.00340045 32.5978 51.7533 -0.0377674 33.1263 52.9272 -0.0670241 33.9235 54.506 -0.0918867 35.044 56.59 -0.112953 36.5694 59.3235 -0.130727 38.6237 62.9207 -0.145633 41.4012 67.7131 -0.158035 11.4838 29.8728 0.0124466 13.6312 33.2498 0.00835406 15.7696 36.5847 0.00496183 17.9038 39.9385 0.00213252 20.046 43.3711 -0.00023828 22.215 46.945 -0.00223131 24.4358 50.729 -0.00390998 26.7402 54.8026 -0.00532479 26.8509 55.7025 -0.0592567 27.1694 56.9488 -0.105391 27.7194 58.615 -0.144834 28.5389 60.8031 -0.178504 29.6872 63.6584 -0.207168 31.2553 67.395 -0.231476 33.3858 72.3395 -0.251976 8.42093 32.9396 0.0175603 10.0143 36.2944 0.0117681 11.6783 39.6352 0.0069852 13.3907 43.0247 0.00300254 15.1428 46.524 -0.000335752 16.936 50.1963 -0.00314818 18.78 54.1116 -0.00552643 20.6919 58.3508 -0.00754258 20.6039 59.2525 -0.0841507 20.7068 60.504 -0.150096 21.0111 62.1766 -0.206921 21.539 64.3689 -0.255899 22.3285 67.2195 -0.298084 23.44 70.9297 -0.334361 24.9693 75.8023 -0.365476 5.5068 36.1551 0.0237238 6.33613 39.3921 0.01585 7.36936 42.6518 0.00939273 8.54221 45.9957 0.0040354 9.81554 49.4836 -0.000451444 11.1672 53.1773 -0.00423806 12.5872 57.1453 -0.00745343 14.0751 61.4671 -0.0101971 13.7828 62.2858 -0.114096 13.678 63.4453 -0.204183 13.759 65.0107 -0.282527 14.034 67.0707 -0.350811 14.5231 69.749 -0.410418 15.2622 73.2222 -0.462497 16.3108 77.7511 -0.508008 2.91346 39.6915 0.0315877 2.66299 42.6542 0.0209824 2.84107 45.6937 0.0123903 3.31318 48.8644 0.0053136 3.99249 52.2197 -0.00059417 4.82256 55.8158 -0.00558155 5.76728 59.7161 -0.00983144 6.80474 63.9943 -0.0134815 6.31846 64.6057 -0.151288 6.03878 65.5346 -0.271686 5.95333 66.8346 -0.377419 6.05971 68.5781 -0.470689 6.36604 70.8654 -0.553278 6.89324 73.8375 -0.62665 7.67945 77.6984 -0.692012 0.967136 43.8748 0.042334 -0.875209 46.2764 0.0278212 -1.89033 48.8554 0.016314 -2.34569 51.6417 0.00696649 -2.41071 54.6704 -0.000777285 -2.19606 57.9834 -0.00729741 -1.7755 61.6314 -0.0128627 -1.19852 65.6764 -0.0176685 -1.8373 65.9018 -0.198787 -2.21602 66.4059 -0.358158 -2.35519 67.2244 -0.499477 -2.26282 68.4072 -0.625647 -1.93463 70.0232 -0.73898 -1.35257 72.1687 -0.84134 -0.481246 74.9807 -0.934247 -5.03581 2.44293 0.0850886 -6.49237 1.23144 0.125864 -7.93456 0.564251 0.146921 -9.36407 0.296867 0.170545 -10.7831 0.34105 0.211325 -12.1946 0.641116 0.279601 -13.6023 1.16156 0.383314 -15.0111 1.88027 0.529106 -20.3173 1.28932 0.541301 -25.6328 0.739039 0.519268 -30.9836 0.274525 0.465739 -36.403 -0.0670796 0.384789 -41.9341 -0.25332 0.2815 -47.6323 -0.253679 0.161779 -53.5696 -0.0369566 0.0322834 -5.06225 1.3481 -0.0121644 -6.2017 0.412081 0.0354372 -7.36207 -0.147556 0.0665264 -8.53349 -0.418217 0.0983132 -9.71044 -0.456487 0.1425 -10.8903 -0.299879 0.207529 -12.0729 0.0265836 0.299881 -13.2597 0.506542 0.424899 -18.8722 -0.823978 0.413847 -24.4323 -2.03462 0.379819 -29.9679 -3.09837 0.326127 -35.514 -3.9933 0.257454 -41.1141 -4.70057 0.179584 -46.8241 -5.2026 0.0992716 -52.7164 -5.48138 0.0242522 -4.94399 0.397975 -0.0588093 -5.86246 -0.357047 -0.0131413 -6.8131 -0.84743 0.0196147 -7.78308 -1.12798 0.0524714 -8.76446 -1.23574 0.0945029 -9.75264 -1.19625 0.152332 -10.7455 -1.02719 0.231042 -11.7432 -0.740608 0.334776 -17.4796 -2.76468 0.311583 -23.1154 -4.61568 0.273329 -28.6785 -6.27996 0.223486 -34.2033 -7.7476 0.166782 -39.7328 -9.01129 0.108986 -45.322 -10.0653 0.0568213 -51.0425 -10.9045 0.0180268 -4.71991 -0.446338 -0.0742234 -5.48064 -1.08089 -0.0348119 -6.27271 -1.5292 -0.00504338 -7.08385 -1.82603 0.0246763 -7.90611 -1.99566 0.0611468 -8.73461 -2.05539 0.109366 -9.56682 -2.01759 0.173163 -10.4022 -1.89104 0.25563 -16.1207 -4.55817 0.228527 -21.6998 -7.01817 0.191855 -27.1664 -9.26738 0.148865 -32.5535 -11.3055 0.103865 -37.9025 -13.135 0.0620562 -43.2668 -14.7608 0.0294819 -48.7162 -16.1904 0.0131065 -4.41167 -1.2065 -0.0697475 -5.05964 -1.76273 -0.0388651 -5.73123 -2.18998 -0.0147912 -6.41625 -2.50983 0.00922532 -7.10799 -2.73781 0.0380181 -7.80224 -2.88531 0.0751531 -8.49678 -2.96076 0.123356 -9.19103 -2.97042 0.184809 -14.7792 -6.22804 0.159763 -20.1964 -9.25873 0.128905 -25.468 -12.0664 0.0949485 -30.6251 -14.6585 0.0614229 -35.7069 -17.0457 0.0325543 -40.7644 -19.2429 0.0132368 -45.8642 -21.2693 0.00911274 -4.03187 -1.89509 -0.0526597 -4.60134 -2.40486 -0.0315404 -5.18198 -2.82878 -0.0147565 -5.76653 -3.17928 0.00199261 -6.35018 -3.46558 0.0218049 -6.93 -3.69467 0.0469698 -7.50454 -3.87194 0.0792328 -8.07362 -4.00171 0.119982 -13.4399 -7.79625 0.101129 -18.6101 -11.355 0.0790257 -23.6073 -14.6876 0.055609 -28.4604 -17.8077 0.033371 -33.206 -20.7333 0.0152772 -37.8914 -23.4878 0.0047539 -42.5791 -26.1015 0.00575056 -3.58779 -2.5194 -0.0280804 -4.10668 -3.00889 -0.0173782 -4.62021 -3.44586 -0.00878293 -5.12463 -3.83602 -0.000201967 -5.61762 -4.1838 0.00987686 -6.09796 -4.49281 0.0225718 -6.56533 -4.7661 0.0387339 -7.02025 -5.0064 0.0590372 -12.088 -9.28323 0.0489822 -16.9403 -13.324 0.0374836 -21.5977 -17.143 0.025549 -26.0865 -20.7589 0.0144649 -30.4397 -24.1956 0.0057573 -34.7005 -27.4842 0.0011864 -38.9254 -30.6652 0.00278116 -3.08323 -3.08323 2.28262e-13 -3.57594 -3.57594 4.84082e-13 -4.04238 -4.04238 6.44726e-13 -4.48304 -4.48304 7.68635e-13 -4.89861 -4.89861 8.74745e-13 -5.29004 -5.29004 9.61897e-13 -5.65849 -5.65849 9.78995e-13 -6.00545 -6.00545 1.00453e-12 -10.7079 -10.7079 8.49987e-13 -15.1814 -15.1814 7.45182e-13 -19.4438 -19.4438 6.40377e-13 -23.5177 -23.5177 5.60441e-13 -27.4323 -27.4323 4.7562e-13 -31.2251 -31.2251 4.05898e-13 -34.9454 -34.9454 3.36038e-13 -2.5194 -3.58779 0.0280804 -3.00889 -4.10668 0.0173782 -3.44586 -4.62021 0.00878293 -3.83602 -5.12463 0.000201967 -4.1838 -5.61762 -0.00987686 -4.49281 -6.09796 -0.0225718 -4.7661 -6.56533 -0.0387339 -5.0064 -7.02025 -0.0590372 -9.28323 -12.088 -0.0489822 -13.324 -16.9403 -0.0374836 -17.143 -21.5977 -0.025549 -20.7589 -26.0865 -0.0144649 -24.1956 -30.4397 -0.0057573 -27.4842 -34.7005 -0.0011864 -30.6652 -38.9254 -0.00278116 -1.89509 -4.03187 0.0526597 -2.40486 -4.60134 0.0315404 -2.82878 -5.18198 0.0147565 -3.17928 -5.76653 -0.00199261 -3.46558 -6.35018 -0.0218049 -3.69467 -6.93 -0.0469698 -3.87194 -7.50454 -0.0792328 -4.00171 -8.07362 -0.119982 -7.79625 -13.4399 -0.101129 -11.355 -18.6101 -0.0790257 -14.6876 -23.6073 -0.055609 -17.8077 -28.4604 -0.033371 -20.7333 -33.206 -0.0152772 -23.4878 -37.8914 -0.0047539 -26.1015 -42.5791 -0.00575056 -1.2065 -4.41167 0.0697475 -1.76273 -5.05964 0.0388651 -2.18998 -5.73123 0.0147912 -2.50983 -6.41625 -0.00922532 -2.73781 -7.10799 -0.0380181 -2.88531 -7.80224 -0.0751531 -2.96076 -8.49678 -0.123356 -2.97042 -9.19103 -0.184809 -6.22804 -14.7792 -0.159763 -9.25873 -20.1964 -0.128905 -12.0664 -25.468 -0.0949485 -14.6585 -30.6251 -0.0614229 -17.0457 -35.7069 -0.0325543 -19.2429 -40.7644 -0.0132368 -21.2693 -45.8642 -0.00911274 -0.446338 -4.71991 0.0742234 -1.08089 -5.48064 0.0348119 -1.5292 -6.27271 0.00504338 -1.82603 -7.08385 -0.0246763 -1.99566 -7.90611 -0.0611468 -2.05539 -8.73461 -0.109366 -2.01759 -9.56682 -0.173163 -1.89104 -10.4022 -0.25563 -4.55817 -16.1207 -0.228527 -7.01817 -21.6998 -0.191855 -9.26738 -27.1664 -0.148865 -11.3055 -32.5535 -0.103865 -13.135 -37.9025 -0.0620562 -14.7608 -43.2668 -0.0294819 -16.1904 -48.7162 -0.0131065 0.397975 -4.94399 0.0588093 -0.357047 -5.86246 0.0131413 -0.84743 -6.8131 -0.0196147 -1.12798 -7.78308 -0.0524714 -1.23574 -8.76446 -0.0945029 -1.19625 -9.75264 -0.152332 -1.02719 -10.7455 -0.231042 -0.740608 -11.7432 -0.334776 -2.76468 -17.4796 -0.311583 -4.61568 -23.1154 -0.273329 -6.27996 -28.6785 -0.223486 -7.7476 -34.2033 -0.166782 -9.01129 -39.7328 -0.108986 -10.0653 -45.322 -0.0568213 -10.9045 -51.0425 -0.0180268 1.3481 -5.06225 0.0121644 0.412081 -6.2017 -0.0354372 -0.147556 -7.36207 -0.0665264 -0.418217 -8.53349 -0.0983132 -0.456487 -9.71044 -0.1425 -0.299879 -10.8903 -0.207529 0.0265836 -12.0729 -0.299881 0.506542 -13.2597 -0.424899 -0.823978 -18.8722 -0.413847 -2.03462 -24.4323 -0.379819 -3.09837 -29.9679 -0.326127 -3.9933 -35.514 -0.257454 -4.70057 -41.1141 -0.179584 -5.2026 -46.8241 -0.0992716 -5.48138 -52.7164 -0.0242522 2.44293 -5.03581 -0.0850886 1.23144 -6.49237 -0.125864 0.564251 -7.93456 -0.146921 0.296867 -9.36407 -0.170545 0.34105 -10.7831 -0.211325 0.641116 -12.1946 -0.279601 1.16156 -13.6023 -0.383314 1.88027 -15.0111 -0.529106 1.28932 -20.3173 -0.541301 0.739039 -25.6328 -0.519268 0.274525 -30.9836 -0.465739 -0.0670796 -36.403 -0.384789 -0.25332 -41.9341 -0.2815 -0.253679 -47.6323 -0.161779 -0.0369566 -53.5696 -0.0322834 -40.7536 3.86271 2.43687 -47.5192 2.15887 0.717663 -54.2742 0.770351 -0.244689 -61.0318 -0.254039 -0.772589 -67.8153 -0.860897 -1.03483 -74.6602 -0.993926 -1.12183 -81.6157 -0.593396 -1.07931 -88.7479 0.40588 -0.924711 -95.6418 0.574607 0.52345 -102.902 0.412953 1.40271 -110.666 0.210196 1.7457 -119.116 0.209037 1.58391 -128.491 0.63013 0.944879 -139.113 1.69509 -0.151085 -151.429 3.65267 -1.69499 -38.2626 -0.0200811 1.90451 -44.6742 -1.844 0.525098 -51.045 -3.48001 -0.266103 -57.3698 -4.86038 -0.699814 -63.6521 -5.92452 -0.905333 -69.9057 -6.61687 -0.956192 -76.1562 -6.88516 -0.892202 -82.443 -6.67848 -0.73096 -90.7808 -8.19625 0.435174 -99.2034 -9.80845 1.12138 -107.84 -11.2954 1.36332 -116.853 -12.4754 1.20144 -126.446 -13.1886 0.678446 -136.892 -13.2819 -0.162791 -148.554 -12.5923 -1.28109 -35.5866 -3.71783 1.47517 -41.6715 -5.8049 0.380699 -47.6881 -7.77077 -0.258766 -53.6179 -9.54484 -0.608849 -59.4493 -11.0665 -0.767778 -65.1796 -12.2829 -0.794372 -70.8169 -13.1477 -0.72241 -76.3808 -13.6197 -0.568558 -85.7669 -16.7777 0.351798 -94.9993 -19.8237 0.87742 -104.183 -22.5919 1.04362 -113.448 -24.9498 0.893336 -122.959 -26.7873 0.474783 -132.931 -28.008 -0.160314 -143.648 -28.5187 -0.957796 -32.7741 -7.27914 1.11491 -38.5278 -9.72053 0.270411 -44.1946 -12.0727 -0.229932 -49.7446 -14.2675 -0.503489 -55.1541 -16.2467 -0.62318 -60.4081 -17.9603 -0.634596 -65.5012 -19.3665 -0.565221 -70.4381 -20.4304 -0.42977 -80.4974 -25.1474 0.273617 -90.2096 -29.5753 0.664511 -99.6478 -33.5886 0.774911 -108.907 -37.0922 0.645126 -118.111 -40.0144 0.321548 -127.42 -42.3019 -0.144968 -137.052 -43.9143 -0.700021 -29.8553 -10.734 0.801349 -35.2572 -13.5853 0.184162 -40.5628 -16.3595 -0.18527 -45.7326 -18.9917 -0.387028 -50.7336 -21.4264 -0.472722 -55.5411 -23.6161 -0.475741 -60.1394 -25.5221 -0.416995 -64.5226 -27.1136 -0.308358 -74.8996 -33.272 0.200312 -84.7825 -38.9955 0.476486 -94.2113 -44.188 0.546394 -103.247 -48.7816 0.443708 -111.976 -52.7331 0.207593 -120.516 -56.0206 -0.118724 -129.025 -58.6412 -0.488836 -26.8487 -14.1012 0.518669 -31.8718 -17.3923 0.114311 -36.7966 -20.607 -0.129438 -41.5763 -23.6837 -0.262449 -46.1707 -26.5689 -0.31773 -50.5479 -29.2175 -0.317175 -54.6846 -31.5928 -0.274872 -58.5673 -33.6669 -0.199146 -68.9273 -41.1126 0.131087 -78.6928 -48.0115 0.307197 -87.8739 -54.2894 0.347753 -96.5019 -59.8991 0.276827 -104.631 -64.8181 0.12255 -112.345 -69.0473 -0.0839923 -119.76 -72.6101 -0.309488 -23.7659 -17.3922 0.254855 -28.3826 -21.1334 0.0546939 -32.9044 -24.7932 -0.066462 -37.2791 -28.3129 -0.132544 -41.4614 -31.6408 -0.159648 -45.4141 -34.7339 -0.158614 -49.1089 -37.5577 -0.136532 -52.5265 -40.0865 -0.0976891 -62.5572 -48.6294 0.0647829 -71.9398 -56.5505 0.150452 -80.6587 -63.7943 0.168933 -88.7206 -70.3305 0.132745 -96.1555 -76.1536 0.0565483 -103.019 -81.2822 -0.0434647 -109.398 -85.76 -0.149982 -20.6131 -20.6131 1.22458e-13 -24.7999 -24.7999 3.02557e-13 -28.8983 -28.8983 3.94906e-13 -32.8522 -32.8522 5.30354e-13 -36.6128 -36.6128 5.36904e-13 -40.1393 -40.1393 5.32019e-13 -43.3998 -43.3998 6.0485e-13 -46.3713 -46.3713 5.66658e-13 -55.7866 -55.7866 4.9738e-13 -64.5454 -64.5454 4.68958e-13 -72.6108 -72.6108 4.1922e-13 -79.9695 -79.9695 3.0731e-13 -86.6324 -86.6324 3.19744e-13 -92.6352 -92.6352 2.66454e-13 -98.0406 -98.0406 1.77321e-13 -17.3922 -23.7659 -0.254855 -21.1334 -28.3826 -0.0546939 -24.7932 -32.9044 0.066462 -28.3129 -37.2791 0.132544 -31.6408 -41.4614 0.159648 -34.7339 -45.4141 0.158614 -37.5577 -49.1089 0.136532 -40.0865 -52.5265 0.0976891 -48.6294 -62.5572 -0.0647829 -56.5505 -71.9398 -0.150452 -63.7943 -80.6587 -0.168933 -70.3305 -88.7206 -0.132745 -76.1536 -96.1555 -0.0565483 -81.2822 -103.019 0.0434647 -85.76 -109.398 0.149982 -14.1012 -26.8487 -0.518669 -17.3923 -31.8718 -0.114311 -20.607 -36.7966 0.129438 -23.6837 -41.5763 0.262449 -26.5689 -46.1707 0.31773 -29.2175 -50.5479 0.317175 -31.5928 -54.6846 0.274872 -33.6669 -58.5673 0.199146 -41.1126 -68.9273 -0.131087 -48.0115 -78.6928 -0.307197 -54.2894 -87.8739 -0.347753 -59.8991 -96.5019 -0.276827 -64.8181 -104.631 -0.12255 -69.0473 -112.345 0.0839923 -72.6101 -119.76 0.309488 -10.734 -29.8553 -0.801349 -13.5853 -35.2572 -0.184162 -16.3595 -40.5628 0.18527 -18.9917 -45.7326 0.387028 -21.4264 -50.7336 0.472722 -23.6161 -55.5411 0.475741 -25.5221 -60.1394 0.416995 -27.1136 -64.5226 0.308358 -33.272 -74.8996 -0.200312 -38.9955 -84.7825 -0.476486 -44.188 -94.2113 -0.546394 -48.7816 -103.247 -0.443708 -52.7331 -111.976 -0.207593 -56.0206 -120.516 0.118724 -58.6412 -129.025 0.488836 -7.27914 -32.7741 -1.11491 -9.72053 -38.5278 -0.270411 -12.0727 -44.1946 0.229932 -14.2675 -49.7446 0.503489 -16.2467 -55.1541 0.62318 -17.9603 -60.4081 0.634596 -19.3665 -65.5012 0.565221 -20.4304 -70.4381 0.42977 -25.1474 -80.4974 -0.273617 -29.5753 -90.2096 -0.664511 -33.5886 -99.6478 -0.774911 -37.0922 -108.907 -0.645126 -40.0144 -118.111 -0.321548 -42.3019 -127.42 0.144968 -43.9143 -137.052 0.700021 -3.71783 -35.5866 -1.47517 -5.8049 -41.6715 -0.380699 -7.77077 -47.6881 0.258766 -9.54484 -53.6179 0.608849 -11.0665 -59.4493 0.767778 -12.2829 -65.1796 0.794372 -13.1477 -70.8169 0.72241 -13.6197 -76.3808 0.568558 -16.7777 -85.7669 -0.351798 -19.8237 -94.9993 -0.87742 -22.5919 -104.183 -1.04362 -24.9498 -113.448 -0.893336 -26.7873 -122.959 -0.474783 -28.008 -132.931 0.160314 -28.5187 -143.648 0.957796 -0.0200811 -38.2626 -1.90451 -1.844 -44.6742 -0.525098 -3.48001 -51.045 0.266103 -4.86038 -57.3698 0.699814 -5.92452 -63.6521 0.905333 -6.61687 -69.9057 0.956192 -6.88516 -76.1562 0.892202 -6.67848 -82.443 0.73096 -8.19625 -90.7808 -0.435174 -9.80845 -99.2034 -1.12138 -11.2954 -107.84 -1.36332 -12.4754 -116.853 -1.20144 -13.1886 -126.446 -0.678446 -13.2819 -136.892 0.162791 -12.5923 -148.554 1.28109 3.86271 -40.7536 -2.43687 2.15887 -47.5192 -0.717663 0.770351 -54.2742 0.244689 -0.254039 -61.0318 0.772589 -0.860897 -67.8153 1.03483 -0.993926 -74.6602 1.12183 -0.593396 -81.6157 1.07931 0.40588 -88.7479 0.924711 0.574607 -95.6418 -0.52345 0.412953 -102.902 -1.40271 0.210196 -110.666 -1.7457 0.209037 -119.116 -1.58391 0.63013 -128.491 -0.944879 1.69509 -139.113 0.151085 3.65267 -151.429 1.69499 -52.1667 -2.1973 3.37673 -59.4008 -0.460394 1.04127 -66.7553 -0.0635536 -0.136862 -74.2673 -0.261952 -0.712017 -81.9757 -0.622997 -0.965135 -89.9224 -0.859183 -1.04393 -98.1526 -0.754912 -1.02307 -106.716 -0.130253 -0.932611 -113.83 0.0664377 0.833811 -121.34 0.0855939 1.92789 -129.304 0.19534 2.39253 -137.787 0.62692 2.26882 -146.868 1.59276 1.59754 -156.636 3.30009 0.420665 -167.198 5.96231 -1.21726 -47.5502 -4.71925 2.6694 -54.9167 -4.45624 0.780702 -62.1731 -5.08576 -0.21853 -69.3977 -6.11328 -0.727701 -76.6506 -7.23414 -0.96139 -83.9861 -8.23939 -1.03755 -91.4601 -8.97131 -1.01834 -99.1348 -9.29989 -0.930619 -107.199 -10.6338 0.49171 -115.553 -11.9921 1.36089 -124.319 -13.1711 1.72285 -133.642 -13.994 1.6248 -143.705 -14.2959 1.11515 -154.742 -13.9103 0.243347 -167.065 -12.6534 -0.940091 -43.2141 -7.52163 2.08725 -50.5361 -8.52288 0.579963 -57.6207 -10.0944 -0.247472 -64.5519 -11.9044 -0.683321 -71.3919 -13.739 -0.8898 -78.1966 -15.4487 -0.959431 -85.0238 -16.9216 -0.942742 -91.94 -18.0682 -0.862917 -100.603 -20.82 0.261305 -109.446 -23.4866 0.939922 -118.63 -25.9303 1.21716 -128.358 -28.0385 1.1403 -138.896 -29.7135 0.758664 -150.607 -30.8625 0.122903 -164.004 -31.3866 -0.715363 -39.0844 -10.5304 1.58955 -46.2245 -12.6359 0.421611 -53.0669 -15.0725 -0.237852 -59.6836 -17.6168 -0.594093 -66.1291 -20.1201 -0.766899 -72.4534 -22.4781 -0.826659 -78.7106 -24.615 -0.812983 -84.9656 -26.474 -0.744943 -93.9296 -30.5227 0.116336 -102.965 -34.4098 0.630707 -112.256 -38.0625 0.837216 -122.04 -41.4368 0.778557 -132.642 -44.5148 0.499798 -144.521 -47.3045 0.0475561 -158.363 -49.8427 -0.530237 -35.1152 -13.6997 1.14921 -41.959 -16.7793 0.293104 -48.49 -20.0082 -0.200412 -54.7606 -23.237 -0.471991 -60.8114 -26.3647 -0.606005 -66.6827 -29.3217 -0.653196 -72.4211 -32.0606 -0.642798 -78.0856 -34.5515 -0.589422 -87.0921 -39.7683 0.035139 -96.0731 -44.775 0.404907 -105.217 -49.5592 0.551197 -114.776 -54.1455 0.508728 -125.107 -58.6018 0.314434 -136.728 -63.0527 0.00677251 -150.443 -67.709 -0.374265 -31.2774 -17.0004 0.746915 -37.724 -20.9429 0.184927 -43.8753 -24.8935 -0.143684 -49.7601 -28.7559 -0.326822 -55.4026 -32.4648 -0.41825 -60.8306 -35.9773 -0.450839 -66.0804 -39.2692 -0.443855 -71.2025 -42.3328 -0.407186 -80.025 -48.5814 -0.00071668 -88.7399 -54.5961 0.23839 -97.527 -60.4188 0.331941 -106.636 -66.1388 0.304319 -116.424 -71.9082 0.181585 -127.429 -77.9729 -0.00898474 -140.505 -84.7343 -0.238748 -27.5534 -20.415 0.367919 -33.5096 -25.1205 0.0894195 -39.2129 -29.7238 -0.0747867 -44.6669 -34.1681 -0.166979 -49.8774 -38.416 -0.213315 -54.8576 -42.4466 -0.229948 -59.6322 -46.2544 -0.226444 -64.2404 -49.8502 -0.207789 -72.6775 -56.9866 -0.00747063 -80.9435 -63.8878 0.109904 -89.198 -70.6435 0.15551 -97.6698 -77.4003 0.1419 -106.695 -84.3868 0.0825263 -116.787 -91.9616 -0.0084899 -128.774 -100.709 -0.116222 -23.9336 -23.9336 1.38703e-13 -29.3094 -29.3094 3.30489e-13 -34.4968 -34.4968 4.41563e-13 -39.4713 -39.4713 5.02709e-13 -44.2186 -44.2186 5.29576e-13 -48.736 -48.736 5.77316e-13 -53.0342 -53.0342 5.4623e-13 -57.1393 -57.1393 5.20917e-13 -65.0091 -65.0091 4.60076e-13 -72.6651 -72.6651 3.51719e-13 -80.2362 -80.2362 2.93099e-13 -87.9163 -87.9163 2.44249e-13 -95.9971 -95.9971 1.90958e-13 -104.93 -104.93 1.42553e-13 -115.448 -115.448 1.17943e-13 -20.415 -27.5534 -0.367919 -25.1205 -33.5096 -0.0894195 -29.7238 -39.2129 0.0747867 -34.1681 -44.6669 0.166979 -38.416 -49.8774 0.213315 -42.4466 -54.8576 0.229948 -46.2544 -59.6322 0.226444 -49.8502 -64.2404 0.207789 -56.9866 -72.6775 0.00747063 -63.8878 -80.9435 -0.109904 -70.6435 -89.198 -0.15551 -77.4003 -97.6698 -0.1419 -84.3868 -106.695 -0.0825263 -91.9616 -116.787 0.0084899 -100.709 -128.774 0.116222 -17.0004 -31.2774 -0.746915 -20.9429 -37.724 -0.184927 -24.8935 -43.8753 0.143684 -28.7559 -49.7601 0.326822 -32.4648 -55.4026 0.41825 -35.9773 -60.8306 0.450839 -39.2692 -66.0804 0.443855 -42.3328 -71.2025 0.407186 -48.5814 -80.025 0.00071668 -54.5961 -88.7399 -0.23839 -60.4188 -97.527 -0.331941 -66.1388 -106.636 -0.304319 -71.9082 -116.424 -0.181585 -77.9729 -127.429 0.00898474 -84.7343 -140.505 0.238748 -13.6997 -35.1152 -1.14921 -16.7793 -41.959 -0.293104 -20.0082 -48.49 0.200412 -23.237 -54.7606 0.471991 -26.3647 -60.8114 0.606005 -29.3217 -66.6827 0.653196 -32.0606 -72.4211 0.642798 -34.5515 -78.0856 0.589422 -39.7683 -87.0921 -0.035139 -44.775 -96.0731 -0.404907 -49.5592 -105.217 -0.551197 -54.1455 -114.776 -0.508728 -58.6018 -125.107 -0.314434 -63.0527 -136.728 -0.00677251 -67.709 -150.443 0.374265 -10.5304 -39.0844 -1.58955 -12.6359 -46.2245 -0.421611 -15.0725 -53.0669 0.237852 -17.6168 -59.6836 0.594093 -20.1201 -66.1291 0.766899 -22.4781 -72.4534 0.826659 -24.615 -78.7106 0.812983 -26.474 -84.9656 0.744943 -30.5227 -93.9296 -0.116336 -34.4098 -102.965 -0.630707 -38.0625 -112.256 -0.837216 -41.4368 -122.04 -0.778557 -44.5148 -132.642 -0.499798 -47.3045 -144.521 -0.0475561 -49.8427 -158.363 0.530237 -7.52163 -43.2141 -2.08725 -8.52288 -50.5361 -0.579963 -10.0944 -57.6207 0.247472 -11.9044 -64.5519 0.683321 -13.739 -71.3919 0.8898 -15.4487 -78.1966 0.959431 -16.9216 -85.0238 0.942742 -18.0682 -91.94 0.862917 -20.82 -100.603 -0.261305 -23.4866 -109.446 -0.939922 -25.9303 -118.63 -1.21716 -28.0385 -128.358 -1.1403 -29.7135 -138.896 -0.758664 -30.8625 -150.607 -0.122903 -31.3866 -164.004 0.715363 -4.71925 -47.5502 -2.6694 -4.45624 -54.9167 -0.780702 -5.08576 -62.1731 0.21853 -6.11328 -69.3977 0.727701 -7.23414 -76.6506 0.96139 -8.23939 -83.9861 1.03755 -8.97131 -91.4601 1.01834 -9.29989 -99.1348 0.930619 -10.6338 -107.199 -0.49171 -11.9921 -115.553 -1.36089 -13.1711 -124.319 -1.72285 -13.994 -133.642 -1.6248 -14.2959 -143.705 -1.11515 -13.9103 -154.742 -0.243347 -12.6534 -167.065 0.940091 -2.1973 -52.1667 -3.37673 -0.460394 -59.4008 -1.04127 -0.0635536 -66.7553 0.136862 -0.261952 -74.2673 0.712017 -0.622997 -81.9757 0.965135 -0.859183 -89.9224 1.04393 -0.754912 -98.1526 1.02307 -0.130253 -106.716 0.932611 0.0664377 -113.83 -0.833811 0.0855939 -121.34 -1.92789 0.19534 -129.304 -2.39253 0.62692 -137.787 -2.26882 1.59276 -146.868 -1.59754 3.30009 -156.636 -0.420665 5.96231 -167.198 1.21726 -58.0124 -3.0006 4.23205 -66.4952 -0.928508 1.25518 -75.0639 -0.44682 -0.210797 -83.7454 -0.651689 -0.905201 -92.5676 -1.02974 -1.19359 -101.559 -1.2456 -1.26433 -110.751 -1.05231 -1.21049 -120.176 -0.24853 -1.06798 -128.101 -0.104924 1.02581 -136.298 -0.13539 2.29149 -144.803 -0.0255541 2.79658 -153.653 0.488692 2.60929 -162.888 1.6412 1.80056 -172.556 3.64949 0.44587 -182.708 6.72506 -1.37298 -52.8332 -5.68028 3.35122 -61.5113 -5.37786 0.943702 -70.0166 -6.12375 -0.301031 -78.4275 -7.31749 -0.917554 -86.7982 -8.59586 -1.18638 -95.1748 -9.71302 -1.25866 -103.603 -10.486 -1.21233 -112.131 -10.7666 -1.07977 -121.138 -12.2977 0.610318 -130.29 -13.8145 1.61789 -139.688 -15.074 2.01129 -149.449 -15.8703 1.86244 -159.712 -16.0181 1.24685 -170.653 -15.3381 0.243811 -182.491 -13.6441 -1.06298 -47.986 -8.6919 2.62362 -56.6386 -9.90215 0.702571 -64.9789 -11.7729 -0.328983 -73.093 -13.9001 -0.857961 -81.0394 -16.0268 -1.09722 -88.8674 -17.9749 -1.16583 -96.6269 -19.6121 -1.12739 -104.375 -20.8339 -1.01005 -114.072 -23.9319 0.328296 -123.788 -26.8746 1.1161 -133.667 -29.4909 1.4172 -143.882 -31.642 1.30048 -154.654 -33.2081 0.83878 -166.273 -34.0777 0.108414 -179.13 -34.1351 -0.810553 -43.3844 -11.9491 1.99984 -51.8408 -14.4762 0.511594 -59.9217 -17.3783 -0.311037 -67.6998 -20.3813 -0.7442 -75.2255 -23.3043 -0.945552 -82.5428 -26.0205 -1.00596 -89.699 -28.4377 -0.975465 -96.7514 -30.4867 -0.877326 -106.803 -35.0292 0.149403 -116.755 -39.3125 0.74711 -126.773 -43.2356 0.971147 -137.071 -46.73 0.882164 -147.924 -49.7535 0.544651 -159.713 -52.2859 0.026262 -172.979 -54.3259 -0.601809 -38.9745 -15.3981 1.44677 -47.0938 -19.0835 0.356104 -54.8251 -22.9285 -0.259788 -62.2186 -26.7474 -0.590473 -69.3095 -30.4146 -0.747257 -76.1314 -33.8422 -0.795805 -82.7247 -36.9695 -0.77314 -89.1417 -39.7565 -0.697143 -99.2535 -45.6082 0.0481193 -109.162 -51.1284 0.47806 -119.04 -56.2809 0.636578 -129.117 -61.0674 0.572252 -139.701 -65.5283 0.336937 -151.229 -69.7493 -0.0148364 -164.346 -73.8769 -0.42534 -34.7222 -19.0046 0.940724 -42.3809 -23.7133 0.224869 -49.6755 -28.4158 -0.185348 -56.6289 -32.9889 -0.408564 -63.2578 -37.3478 -0.515822 -69.5825 -41.4352 -0.549735 -75.6329 -45.2157 -0.534742 -81.4532 -48.6728 -0.482971 -91.3657 -55.6861 0.00236349 -100.991 -62.324 0.280481 -110.495 -68.6087 0.381746 -120.104 -74.6072 0.339966 -130.132 -80.441 0.191318 -141.034 -86.3057 -0.026066 -153.502 -92.5108 -0.271584 -30.6066 -22.7478 0.463502 -37.6914 -28.3594 0.108789 -44.4639 -33.8353 -0.0962311 -50.9172 -39.0992 -0.208665 -57.0475 -44.0981 -0.263112 -62.8596 -48.799 -0.280533 -68.3706 -53.1869 -0.273076 -73.6136 -57.2652 -0.246864 -83.0957 -65.2803 -0.00759138 -92.23 -72.9029 0.128958 -101.162 -80.2058 0.17829 -110.099 -87.3137 0.157724 -119.336 -94.4212 0.0858196 -129.308 -101.826 -0.0178309 -140.688 -109.994 -0.13228 -26.6164 -26.6164 9.09686e-14 -33.0187 -33.0187 2.48961e-13 -39.1846 -39.1846 3.77753e-13 -45.0753 -45.0753 4.24216e-13 -50.6637 -50.6637 5.03153e-13 -55.9372 -55.9372 4.81393e-13 -60.8982 -60.8982 4.83169e-13 -65.5662 -65.5662 4.13891e-13 -74.4095 -74.4095 3.97904e-13 -82.8697 -82.8697 3.25073e-13 -91.0611 -91.0611 2.62901e-13 -99.1555 -99.1555 2.13163e-13 -107.407 -107.407 1.77636e-13 -116.197 -116.197 1.35891e-13 -126.119 -126.119 9.17605e-14 -22.7478 -30.6066 -0.463502 -28.3594 -37.6914 -0.108789 -33.8353 -44.4639 0.0962311 -39.0992 -50.9172 0.208665 -44.0981 -57.0475 0.263112 -48.799 -62.8596 0.280533 -53.1869 -68.3706 0.273076 -57.2652 -73.6136 0.246864 -65.2803 -83.0957 0.00759138 -72.9029 -92.23 -0.128958 -80.2058 -101.162 -0.17829 -87.3137 -110.099 -0.157724 -94.4212 -119.336 -0.0858196 -101.826 -129.308 0.0178309 -109.994 -140.688 0.13228 -19.0046 -34.7222 -0.940724 -23.7133 -42.3809 -0.224869 -28.4158 -49.6755 0.185348 -32.9889 -56.6289 0.408564 -37.3478 -63.2578 0.515822 -41.4352 -69.5825 0.549735 -45.2157 -75.6329 0.534742 -48.6728 -81.4532 0.482971 -55.6861 -91.3657 -0.00236349 -62.324 -100.991 -0.280481 -68.6087 -110.495 -0.381746 -74.6072 -120.104 -0.339966 -80.441 -130.132 -0.191318 -86.3057 -141.034 0.026066 -92.5108 -153.502 0.271584 -15.3981 -38.9745 -1.44677 -19.0835 -47.0938 -0.356104 -22.9285 -54.8251 0.259788 -26.7474 -62.2186 0.590473 -30.4146 -69.3095 0.747257 -33.8422 -76.1314 0.795805 -36.9695 -82.7247 0.77314 -39.7565 -89.1417 0.697143 -45.6082 -99.2535 -0.0481193 -51.1284 -109.162 -0.47806 -56.2809 -119.04 -0.636578 -61.0674 -129.117 -0.572252 -65.5283 -139.701 -0.336937 -69.7493 -151.229 0.0148364 -73.8769 -164.346 0.42534 -11.9491 -43.3844 -1.99984 -14.4762 -51.8408 -0.511594 -17.3783 -59.9217 0.311037 -20.3813 -67.6998 0.7442 -23.3043 -75.2255 0.945552 -26.0205 -82.5428 1.00596 -28.4377 -89.699 0.975465 -30.4867 -96.7514 0.877326 -35.0292 -106.803 -0.149403 -39.3125 -116.755 -0.74711 -43.2356 -126.773 -0.971147 -46.73 -137.071 -0.882164 -49.7535 -147.924 -0.544651 -52.2859 -159.713 -0.026262 -54.3259 -172.979 0.601809 -8.6919 -47.986 -2.62362 -9.90215 -56.6386 -0.702571 -11.7729 -64.9789 0.328983 -13.9001 -73.093 0.857961 -16.0268 -81.0394 1.09722 -17.9749 -88.8674 1.16583 -19.6121 -96.6269 1.12739 -20.8339 -104.375 1.01005 -23.9319 -114.072 -0.328296 -26.8746 -123.788 -1.1161 -2