<?xml version="1.0"?> 
<VTKFile type="StructuredGrid" version="0.1"> 
<StructuredGrid WholeExtent="0 29 0 29 0 29"> 
<Piece Extent="0 29 0 29 0 29"> 
<PointData>
<DataArray type="Float32" Name="hfield" format="ascii" NumberOfComponents="3"> 
104.053 3191.41 -3.79259e-10 13.6486 3243.28 -3.73984e-10 -56.4945 3295.16 -3.68521e-10 -110.283 3347.04 -3.62592e-10 -150.729 3398.91 -3.59441e-10 -180.193 3450.79 -3.54624e-10 -200.551 3502.66 -3.515e-10 -213.313 3554.54 -3.48856e-10 -219.706 3606.42 -3.4504e-10 -220.741 3658.29 -3.44103e-10 -217.254 3710.17 -3.40769e-10 -209.947 3762.04 -3.38191e-10 -199.41 3813.92 -3.35717e-10 -186.145 3865.8 -3.33614e-10 -170.581 3917.67 -3.30645e-10 -166.953 3926.28 -3.33443e-10 -173.777 3891.63 -3.3674e-10 -176.896 3856.98 -3.40151e-10 -176.586 3822.33 -3.41811e-10 -173.091 3787.68 -3.46102e-10 -166.624 3753.03 -3.48741e-10 -157.373 3718.38 -3.5008e-10 -145.508 3683.73 -3.52661e-10 -131.177 3649.08 -3.541e-10 -114.514 3614.43 -3.56213e-10 -95.6372 3579.77 -3.5855e-10 -74.6554 3545.12 -3.62377e-10 -51.665 3510.47 -3.62475e-10 -26.7535 3475.82 -3.64178e-10 8.65858e-13 3441.17 -3.65821e-10 196.463 3070.9 -3.33414e-10 133.525 3134.95 -3.33563e-10 86.0262 3197.92 -3.32482e-10 51.0855 3259.96 -3.33032e-10 26.4415 3321.22 -3.32387e-10 10.2933 3381.8 -3.31988e-10 1.18914 3441.8 -3.30307e-10 -2.05372 3501.27 -3.30681e-10 -0.408795 3560.28 -3.29749e-10 5.31554 3618.88 -3.28699e-10 14.4426 3677.1 -3.28632e-10 26.4015 3734.99 -3.27856e-10 40.7077 3792.57 -3.27504e-10 56.9469 3849.86 -3.2524e-10 74.7634 3906.89 -3.2464e-10 78.4277 3920.49 -3.26514e-10 69.4737 3890.74 -3.32264e-10 63.6555 3860.88 -3.34804e-10 60.731 3830.92 -3.36907e-10 60.4867 3800.86 -3.39925e-10 62.7336 3770.73 -3.46533e-10 67.3038 3740.54 -3.46056e-10 74.0476 3710.28 -3.47981e-10 82.8311 3679.97 -3.51295e-10 93.5342 3649.62 -3.53757e-10 106.049 3619.24 -3.56446e-10 120.277 3588.82 -3.57696e-10 136.13 3558.37 -3.61387e-10 153.529 3527.9 -3.59612e-10 172.4 3497.42 -3.62046e-10 296.534 2958.05 -2.95242e-10 256.536 3031.24 -2.99096e-10 228.31 3102.66 -3.03604e-10 209.693 3172.55 -3.06095e-10 198.964 3241.13 -3.08921e-10 194.732 3308.55 -3.12201e-10 195.863 3374.96 -3.12112e-10 201.424 3440.45 -3.15541e-10 210.639 3505.14 -3.16423e-10 222.859 3569.09 -3.16925e-10 237.536 3632.37 -3.17502e-10 254.204 3695.03 -3.18715e-10 272.468 3757.13 -3.17706e-10 291.985 3818.7 -3.19378e-10 312.462 3879.79 -3.198e-10 316.689 3897.44 -3.22501e-10 306.23 3871.83 -3.26253e-10 298.403 3846.01 -3.31691e-10 292.998 3820 -3.34481e-10 289.829 3793.83 -3.39234e-10 288.729 3767.52 -3.40987e-10 289.551 3741.08 -3.45182e-10 292.163 3714.52 -3.48101e-10 296.446 3687.87 -3.50439e-10 302.294 3661.13 -3.50729e-10 309.609 3634.32 -3.54831e-10 318.304 3607.44 -3.56604e-10 328.3 3580.51 -3.58255e-10 339.524 3553.53 -3.59596e-10 351.911 3526.52 -3.60303e-10 401.902 2850.49 -2.60969e-10 381.325 2930.53 -2.69378e-10 369.676 3008.36 -2.76284e-10 365.312 3084.26 -2.8427e-10 366.906 3158.49 -2.88579e-10 373.376 3231.22 -2.92706e-10 383.829 3302.62 -2.96769e-10 397.525 3372.82 -3.00126e-10 413.846 3441.94 -3.03446e-10 432.267 3510.06 -3.06112e-10 452.347 3577.27 -3.08443e-10 473.706 3643.64 -3.10257e-10 496.021 3709.22 -3.10248e-10 519.011 3774.07 -3.123e-10 542.435 3838.23 -3.13764e-10 547.624 3859.1 -3.17278e-10 536.152 3836.95 -3.21521e-10 526.868 3814.5 -3.26864e-10 519.591 3791.81 -3.30686e-10 514.159 3768.88 -3.33352e-10 510.428 3745.75 -3.38413e-10 508.27 3722.44 -3.415e-10 507.569 3698.97 -3.43111e-10 508.221 3675.36 -3.45739e-10 510.132 3651.62 -3.47867e-10 513.216 3627.77 -3.47874e-10 517.398 3603.83 -3.52106e-10 522.605 3579.8 -3.54574e-10 528.775 3555.69 -3.53225e-10 535.848 3531.53 -3.56557e-10 510.86 2746.53 -2.31628e-10 506.9 2831.63 -2.43215e-10 509.632 2914.25 -2.53086e-10 517.79 2994.69 -2.62145e-10 530.346 3073.19 -2.70659e-10 546.452 3149.96 -2.77291e-10 565.403 3225.16 -2.82749e-10 586.612 3298.95 -2.88832e-10 609.582 3371.43 -2.92497e-10 633.895 3442.71 -2.96455e-10 659.191 3512.88 -3.0045e-10 685.165 3582.01 -3.03435e-10 711.552 3650.16 -3.04721e-10 738.125 3717.41 -3.07388e-10 764.686 3783.79 -3.09677e-10 771.13 3807.15 -3.12992e-10 759.029 3787.85 -3.19463e-10 748.726 3768.2 -3.2349e-10 740.064 3748.23 -3.29637e-10 732.905 3727.98 -3.31354e-10 727.126 3707.48 -3.36289e-10 722.616 3686.75 -3.38184e-10 719.275 3665.82 -3.41388e-10 717.013 3644.71 -3.43914e-10 715.748 3623.43 -3.47222e-10 715.406 3602.01 -3.48147e-10 715.92 3580.46 -3.49768e-10 717.229 3558.8 -3.52426e-10 719.276 3537.03 -3.51759e-10 722.01 3515.18 -3.52815e-10 622.142 2644.89 -2.04384e-10 632.524 2733.64 -2.19954e-10 647.812 2819.74 -2.33101e-10 667.027 2903.49 -2.44425e-10 689.368 2985.14 -2.54967e-10 714.168 3064.87 -2.63783e-10 740.871 3142.87 -2.71016e-10 769.01 3219.27 -2.78754e-10 798.19 3294.2 -2.83516e-10 828.073 3367.76 -2.89472e-10 858.373 3440.04 -2.93188e-10 888.843 3511.11 -2.97433e-10 919.269 3581.06 -3.01011e-10 949.467 3649.93 -3.04126e-10 979.279 3717.77 -3.07272e-10 987.188 3743 -3.11963e-10 974.753 3726.01 -3.15487e-10 963.772 3708.63 -3.22486e-10 954.113 3690.89 -3.28827e-10 945.658 3672.82 -3.31717e-10 938.303 3654.46 -3.3574e-10 931.953 3635.84 -3.38381e-10 926.522 3616.98 -3.41427e-10 921.935 3597.89 -3.44026e-10 918.12 3578.62 -3.46202e-10 915.014 3559.16 -3.46185e-10 912.561 3539.55 -3.49855e-10 910.707 3519.79 -3.50308e-10 909.404 3499.9 -3.51421e-10 908.608 3479.89 -3.52183e-10 734.797 2544.63 -1.80263e-10 757.64 2635.86 -1.98146e-10 783.948 2724.37 -2.13924e-10 812.963 2810.42 -2.27825e-10 844.059 2894.24 -2.40251e-10 876.714 2976.04 -2.5082e-10 910.49 3055.96 -2.59525e-10 945.017 3134.15 -2.68147e-10 979.981 3210.73 -2.75097e-10 1015.11 3285.81 -2.82166e-10 1050.19 3359.46 -2.87522e-10 1085 3431.77 -2.93164e-10 1119.39 3502.8 -2.97362e-10 1153.21 3572.62 -3.01458e-10 1186.32 3641.28 -3.0325e-10 1195.84 3667.81 -3.08844e-10 1183.29 3652.68 -3.16025e-10 1171.9 3637.12 -3.20854e-10 1161.55 3621.17 -3.2666e-10 1152.14 3604.86 -3.31459e-10 1143.58 3588.22 -3.34024e-10 1135.81 3571.29 -3.36776e-10 1128.74 3554.09 -3.40536e-10 1122.3 3536.63 -3.42797e-10 1116.45 3518.96 -3.44954e-10 1111.13 3501.07 -3.46818e-10 1106.28 3483 -3.48459e-10 1101.87 3464.75 -3.49684e-10 1097.86 3446.35 -3.50588e-10 1094.2 3427.8 -3.51409e-10 848.103 2445.01 -1.58388e-10 881.827 2537.77 -1.79335e-10 917.843 2627.76 -1.97109e-10 955.566 2715.25 -2.12809e-10 994.51 2800.43 -2.27565e-10 1034.27 2883.49 -2.40333e-10 1074.49 2964.59 -2.51057e-10 1114.9 3043.86 -2.61192e-10 1155.24 3121.4 -2.69354e-10 1195.3 3197.32 -2.77331e-10 1234.91 3271.7 -2.84439e-10 1273.9 3344.62 -2.89958e-10 1312.14 3416.15 -2.94582e-10 1349.53 3486.33 -3.00153e-10 1385.95 3555.23 -3.03427e-10 1397.16 3582.57 -3.09469e-10 1384.67 3568.9 -3.15435e-10 1373.06 3554.78 -3.21554e-10 1362.25 3540.24 -3.2727e-10 1352.16 3525.32 -3.31712e-10 1342.71 3510.05 -3.34518e-10 1333.84 3494.46 -3.38694e-10 1325.49 3478.57 -3.4319e-10 1317.6 3462.41 -3.46323e-10 1310.13 3445.99 -3.46316e-10 1303.03 3429.35 -3.49188e-10 1296.27 3412.49 -3.50004e-10 1289.8 3395.43 -3.51233e-10 1283.59 3378.19 -3.52936e-10 1277.62 3360.78 -3.52545e-10 961.504 2345.49 -1.36988e-10 1004.76 2438.94 -1.60485e-10 1049.35 2529.64 -1.81224e-10 1094.83 2617.8 -1.9934e-10 1140.81 2703.62 -2.15321e-10 1186.99 2787.27 -2.2935e-10 1233.1 2868.89 -2.42203e-10 1278.91 2948.6 -2.5374e-10 1324.23 3026.5 -2.63608e-10 1368.91 3102.68 -2.71886e-10 1412.8 3177.23 -2.79905e-10 1455.78 3250.21 -2.86747e-10 1497.74 3321.69 -2.92849e-10 1538.61 3391.73 -2.97913e-10 1578.31 3460.37 -3.01718e-10 1591.26 3488.09 -3.08673e-10 1578.94 3475.55 -3.16119e-10 1567.27 3462.54 -3.22375e-10 1556.18 3449.09 -3.28161e-10 1545.61 3435.25 -3.31727e-10 1535.51 3421.05 -3.36669e-10 1525.81 3406.5 -3.40592e-10 1516.46 3391.64 -3.43708e-10 1507.44 3376.48 -3.45785e-10 1498.69 3361.06 -3.48532e-10 1490.18 3345.38 -3.5026e-10 1481.88 3329.47 -3.50785e-10 1473.76 3313.34 -3.51869e-10 1465.79 3297 -3.51725e-10 1457.96 3280.47 -3.52559e-10 1074.57 2245.63 -1.18308e-10 1126.2 2339.05 -1.44061e-10 1178.38 2429.75 -1.66695e-10 1230.76 2517.93 -1.87442e-10 1283.05 2603.76 -2.05548e-10 1335.03 2687.39 -2.21358e-10 1386.49 2768.94 -2.35209e-10 1437.26 2848.53 -2.48284e-10 1487.2 2926.24 -2.59461e-10 1536.18 3002.17 -2.69057e-10 1584.1 3076.38 -2.77633e-10 1630.86 3148.95 -2.85907e-10 1676.41 3219.93 -2.92051e-10 1720.66 3289.36 -2.97619e-10 1763.56 3357.31 -3.03087e-10 1778.26 3385.06 -3.09771e-10 1766.18 3373.35 -3.17335e-10 1754.56 3361.16 -3.24882e-10 1743.33 3348.55 -3.29735e-10 1732.45 3335.53 -3.36037e-10 1721.86 3322.13 -3.38596e-10 1711.54 3308.39 -3.43267e-10 1701.44 3294.32 -3.45916e-10 1691.53 3279.94 -3.49814e-10 1681.77 3265.28 -3.51039e-10 1672.14 3250.36 -3.53242e-10 1662.62 3235.18 -3.54614e-10 1653.18 3219.76 -3.55501e-10 1643.8 3204.13 -3.55223e-10 1634.47 3188.28 -3.56333e-10 1186.97 2145.11 -9.97872e-11 1245.97 2237.84 -1.27796e-10 1304.85 2327.91 -1.52953e-10 1363.37 2415.5 -1.75594e-10 1421.33 2500.76 -1.95147e-10 1478.54 2583.82 -2.13163e-10 1534.86 2664.78 -2.28725e-10 1590.16 2743.75 -2.42801e-10 1644.35 2820.8 -2.54895e-10 1697.33 2896.01 -2.6622e-10 1749.02 2969.45 -2.75839e-10 1799.37 3041.17 -2.84388e-10 1848.32 3111.23 -2.92058e-10 1895.83 3179.67 -2.98846e-10 1941.86 3246.55 -3.04077e-10 1958.29 3274.02 -3.10379e-10 1946.49 3262.88 -3.18865e-10 1934.98 3251.29 -3.26438e-10 1923.7 3239.28 -3.32366e-10 1912.63 3226.86 -3.37729e-10 1901.71 3214.08 -3.42991e-10 1890.93 3200.94 -3.46092e-10 1880.25 3187.47 -3.4978e-10 1869.65 3173.69 -3.52702e-10 1859.1 3159.63 -3.53983e-10 1848.59 3145.28 -3.56248e-10 1838.1 3130.67 -3.57732e-10 1827.61 3115.82 -3.58575e-10 1817.1 3100.73 -3.59663e-10 1806.57 3085.42 -3.59351e-10 1298.45 2043.68 -8.2321e-11 1363.92 2135.09 -1.13283e-10 1428.73 2223.95 -1.40291e-10 1492.71 2310.4 -1.65356e-10 1555.72 2394.57 -1.87005e-10 1617.63 2476.55 -2.06229e-10 1678.35 2556.45 -2.23534e-10 1737.79 2634.34 -2.38782e-10 1795.87 2710.29 -2.52337e-10 1852.55 2784.37 -2.6427e-10 1907.77 2856.63 -2.75322e-10 1961.49 2927.13 -2.8515e-10 2013.68 2995.91 -2.93261e-10 2064.3 3063.01 -3.00736e-10 2113.33 3128.47 -3.06646e-10 2131.45 3155.39 -3.14132e-10 2119.96 3144.63 -3.23563e-10 2108.6 3133.44 -3.3102e-10 2097.34 3121.84 -3.36955e-10 2086.15 3109.86 -3.42818e-10 2075 3097.52 -3.4764e-10 2063.88 3084.83 -3.51451e-10 2052.76 3071.82 -3.55237e-10 2041.62 3058.5 -3.57592e-10 2030.46 3044.89 -3.60248e-10 2019.26 3031 -3.62006e-10 2007.99 3016.85 -3.63501e-10 1996.66 3002.44 -3.64566e-10 1985.26 2987.8 -3.6443e-10 1973.77 2972.92 -3.64593e-10 1408.83 1941.14 -6.55914e-11 1479.97 2030.65 -9.91035e-11 1549.99 2117.75 -1.28777e-10 1618.8 2202.54 -1.55239e-10 1686.31 2285.11 -1.78926e-10 1752.43 2365.55 -2.00156e-10 1817.11 2443.93 -2.18713e-10 1880.3 2520.32 -2.35678e-10 1941.95 2594.77 -2.50212e-10 2002.03 2667.34 -2.63556e-10 2060.52 2738.06 -2.75386e-10 2117.38 2807 -2.85617e-10 2172.61 2874.17 -2.94744e-10 2226.19 2939.62 -3.03135e-10 2278.11 3003.39 -3.09913e-10 2297.84 3029.52 -3.18016e-10 2286.65 3018.97 -3.27154e-10 2275.46 3008.01 -3.34836e-10 2264.25 2996.68 -3.42015e-10 2252.99 2984.99 -3.48218e-10 2241.68 2972.97 -3.53391e-10 2230.31 2960.61 -3.57775e-10 2218.85 2947.95 -3.6189e-10 2207.3 2934.99 -3.64906e-10 2195.65 2921.74 -3.67333e-10 2183.9 2908.23 -3.69073e-10 2172.02 2894.45 -3.70776e-10 2160.03 2880.42 -3.7177e-10 2147.91 2866.15 -3.72505e-10 2135.65 2851.65 -3.72126e-10 1517.98 1837.36 -4.93335e-11 1594.05 1924.4 -8.53588e-11 1668.64 2009.19 -1.17448e-10 1741.7 2091.81 -1.45935e-10 1813.18 2172.31 -1.71718e-10 1883.05 2250.76 -1.94653e-10 1951.27 2327.21 -2.14828e-10 2017.84 2401.7 -2.33113e-10 2082.72 2474.28 -2.4893e-10 2145.91 2544.98 -2.63876e-10 2207.4 2613.84 -2.76261e-10 2267.18 2680.9 -2.87694e-10 2325.26 2746.17 -2.97815e-10 2381.62 2809.7 -3.0643e-10 2436.28 2871.51 -3.14254e-10 2457.54 2896.66 -3.23199e-10 2446.62 2886.16 -3.32839e-10 2435.59 2875.32 -3.41334e-10 2424.43 2864.14 -3.48826e-10 2413.14 2852.64 -3.55326e-10 2401.71 2840.83 -3.6091e-10 2390.14 2828.73 -3.65592e-10 2378.41 2816.33 -3.69958e-10 2366.53 2803.67 -3.73105e-10 2354.5 2790.73 -3.75706e-10 2342.3 2777.54 -3.78113e-10 2329.93 2764.09 -3.79463e-10 2317.4 2750.41 -3.80404e-10 2304.7 2736.49 -3.80893e-10 2291.84 2722.34 -3.81304e-10 1625.8 1732.26 -3.3439e-11 1706.15 1816.25 -7.21042e-11 1784.7 1898.2 -1.06706e-10 1861.46 1978.14 -1.37435e-10 1936.42 2056.11 -1.65329e-10 2009.59 2132.13 -1.89936e-10 2080.95 2206.24 -2.1172e-10 2150.52 2278.45 -2.3132e-10 2218.31 2348.8 -2.49089e-10 2284.31 2417.31 -2.64641e-10 2348.54 2484 -2.78563e-10 2411 2548.89 -2.90718e-10 2471.71 2612.01 -3.01427e-10 2530.67 2673.36 -3.11482e-10 2587.9 2732.98 -3.19655e-10 2610.59 2756.98 -3.29162e-10 2599.89 2746.43 -3.39548e-10 2588.98 2735.59 -3.48563e-10 2577.86 2724.47 -3.5659e-10 2566.53 2713.08 -3.63378e-10 2555 2701.43 -3.69378e-10 2543.26 2689.52 -3.74636e-10 2531.31 2677.36 -3.78811e-10 2519.15 2664.95 -3.82215e-10 2506.79 2652.29 -3.85348e-10 2494.22 2639.41 -3.87554e-10 2481.45 2626.29 -3.89237e-10 2468.48 2612.95 -3.90443e-10 2455.32 2599.38 -3.91179e-10 2441.95 2585.6 -3.91227e-10 1732.26 1625.8 -3.4591e-11 1816.25 1706.15 -7.27234e-11 1898.2 1784.7 -1.0698e-10 1978.14 1861.46 -1.37398e-10 2056.11 1936.42 -1.64685e-10 2132.13 2009.59 -1.89052e-10 2206.24 2080.95 -2.10826e-10 2278.45 2150.52 -2.30362e-10 2348.8 2218.31 -2.47495e-10 2417.31 2284.31 -2.62962e-10 2484 2348.54 -2.76651e-10 2548.89 2411 -2.88989e-10 2612.01 2471.71 -2.9969e-10 2673.36 2530.67 -3.0906e-10 2732.98 2587.9 -3.17756e-10 2756.98 2610.59 -3.26955e-10 2746.43 2599.89 -3.37116e-10 2735.59 2588.98 -3.46178e-10 2724.47 2577.86 -3.54028e-10 2713.08 2566.53 -3.60716e-10 2701.43 2555 -3.66839e-10 2689.52 2543.26 -3.71856e-10 2677.36 2531.31 -3.7612e-10 2664.95 2519.15 -3.79496e-10 2652.29 2506.79 -3.82302e-10 2639.41 2494.22 -3.8459e-10 2626.29 2481.45 -3.86221e-10 2612.95 2468.48 -3.87368e-10 2599.38 2455.32 -3.87988e-10 2585.6 2441.95 -3.88196e-10 1837.36 1517.98 -5.26426e-11 1924.4 1594.05 -8.74168e-11 2009.19 1668.64 -1.18406e-10 2091.81 1741.7 -1.45977e-10 2172.31 1813.18 -1.70342e-10 2250.76 1883.05 -1.92307e-10 2327.21 1951.27 -2.11965e-10 2401.7 2017.84 -2.29478e-10 2474.28 2082.72 -2.45201e-10 2544.98 2145.91 -2.58831e-10 2613.84 2207.4 -2.71138e-10 2680.9 2267.18 -2.82332e-10 2746.17 2325.26 -2.91578e-10 2809.7 2381.62 -3.00325e-10 2871.51 2436.28 -3.07782e-10 2896.66 2457.54 -3.15943e-10 2886.16 2446.62 -3.25198e-10 2875.32 2435.59 -3.3358e-10 2864.14 2424.43 -3.40661e-10 2852.64 2413.14 -3.4677e-10 2840.83 2401.71 -3.52196e-10 2828.73 2390.14 -3.56703e-10 2816.33 2378.41 -3.60396e-10 2803.67 2366.53 -3.63816e-10 2790.73 2354.5 -3.66458e-10 2777.54 2342.3 -3.68151e-10 2764.09 2329.93 -3.69637e-10 2750.41 2317.4 -3.70584e-10 2736.49 2304.7 -3.71203e-10 2722.34 2291.84 -3.71046e-10 1941.14 1408.83 -7.10362e-11 2030.65 1479.97 -1.02063e-10 2117.75 1549.99 -1.30058e-10 2202.54 1618.8 -1.54765e-10 2285.11 1686.31 -1.76824e-10 2365.55 1752.43 -1.96311e-10 2443.93 1817.11 -2.14036e-10 2520.32 1880.3 -2.29406e-10 2594.77 1941.95 -2.4376e-10 2667.34 2002.03 -2.55637e-10 2738.06 2060.52 -2.66551e-10 2807 2117.38 -2.76256e-10 2874.17 2172.61 -2.84996e-10 2939.62 2226.19 -2.92057e-10 3003.39 2278.11 -2.98881e-10 3029.52 2297.84 -3.06508e-10 3018.97 2286.65 -3.14788e-10 3008.01 2275.46 -3.22382e-10 2996.68 2264.25 -3.29103e-10 2984.99 2252.99 -3.35076e-10 2972.97 2241.68 -3.39477e-10 2960.61 2230.31 -3.4348e-10 2947.95 2218.85 -3.47226e-10 2934.99 2207.3 -3.50014e-10 2921.74 2195.65 -3.52269e-10 2908.23 2183.9 -3.53997e-10 2894.45 2172.02 -3.55856e-10 2880.42 2160.03 -3.56181e-10 2866.15 2147.91 -3.56697e-10 2851.65 2135.65 -3.56503e-10 2043.68 1298.45 -9.01418e-11 2135.09 1363.92 -1.17708e-10 2223.95 1428.73 -1.42653e-10 2310.4 1492.71 -1.64103e-10 2394.57 1555.72 -1.83454e-10 2476.55 1617.63 -2.00909e-10 2556.45 1678.35 -2.16395e-10 2634.34 1737.79 -2.30003e-10 2710.29 1795.87 -2.4237e-10 2784.37 1852.55 -2.53292e-10 2856.63 1907.77 -2.62517e-10 2927.13 1961.49 -2.70361e-10 2995.91 2013.68 -2.77781e-10 3063.01 2064.3 -2.84352e-10 3128.47 2113.33 -2.90564e-10 3155.39 2131.45 -2.97232e-10 3144.63 2119.96 -3.04307e-10 3133.44 2108.6 -3.11046e-10 3121.84 2097.34 -3.1773e-10 3109.86 2086.15 -3.22835e-10 3097.52 2075 -3.26897e-10 3084.83 2063.88 -3.316e-10 3071.82 2052.76 -3.34414e-10 3058.5 2041.62 -3.37223e-10 3044.89 2030.46 -3.3945e-10 3031 2019.26 -3.41231e-10 3016.85 2007.99 -3.41932e-10 3002.44 1996.66 -3.42588e-10 2987.8 1985.26 -3.43151e-10 2972.92 1973.77 -3.43573e-10 2145.11 1186.97 -1.09534e-10 2237.84 1245.97 -1.33846e-10 2327.91 1304.85 -1.55545e-10 2415.5 1363.37 -1.74363e-10 2500.76 1421.33 -1.91617e-10 2583.82 1478.54 -2.0617e-10 2664.78 1534.86 -2.19643e-10 2743.75 1590.16 -2.31552e-10 2820.8 1644.35 -2.42232e-10 2896.01 1697.33 -2.50696e-10 2969.45 1749.02 -2.59265e-10 3041.17 1799.37 -2.66589e-10 3111.23 1848.32 -2.72736e-10 3179.67 1895.83 -2.78059e-10 3246.55 1941.86 -2.8278e-10 3274.02 1958.29 -2.8958e-10 3262.88 1946.49 -2.96423e-10 3251.29 1934.98 -3.0188e-10 3239.28 1923.7 -3.07736e-10 3226.86 1912.63 -3.12765e-10 3214.08 1901.71 -3.16172e-10 3200.94 1890.93 -3.19761e-10 3187.47 1880.25 -3.23278e-10 3173.69 1869.65 -3.25553e-10 3159.63 1859.1 -3.27357e-10 3145.28 1848.59 -3.2925e-10 3130.67 1838.1 -3.29762e-10 3115.82 1827.61 -3.30803e-10 3100.73 1817.1 -3.30181e-10 3085.42 1806.57 -3.30664e-10 2245.63 1074.57 -1.30126e-10 2339.05 1126.2 -1.50729e-10 2429.75 1178.38 -1.69013e-10 2517.93 1230.76 -1.84909e-10 2603.76 1283.05 -1.99447e-10 2687.39 1335.03 -2.12122e-10 2768.94 1386.49 -2.23366e-10 2848.53 1437.26 -2.32835e-10 2926.24 1487.2 -2.41954e-10 3002.17 1536.18 -2.49449e-10 3076.38 1584.1 -2.56737e-10 3148.95 1630.86 -2.62048e-10 3219.93 1676.41 -2.67811e-10 3289.36 1720.66 -2.72396e-10 3357.31 1763.56 -2.76486e-10 3385.06 1778.26 -2.80686e-10 3373.35 1766.18 -2.87957e-10 3361.16 1754.56 -2.9268e-10 3348.55 1743.33 -2.9819e-10 3335.53 1732.45 -3.0264e-10 3322.13 1721.86 -3.06891e-10 3308.39 1711.54 -3.09365e-10 3294.32 1701.44 -3.12462e-10 3279.94 1691.53 -3.1462e-10 3265.28 1681.77 -3.1611e-10 3250.36 1672.14 -3.175e-10 3235.18 1662.62 -3.17932e-10 3219.76 1653.18 -3.18432e-10 3204.13 1643.8 -3.20151e-10 3188.28 1634.47 -3.19531e-10 2345.49 961.504 -1.52079e-10 2438.94 1004.76 -1.68936e-10 2529.64 1049.35 -1.84168e-10 2617.8 1094.83 -1.97e-10 2703.62 1140.81 -2.09129e-10 2787.27 1186.99 -2.19698e-10 2868.89 1233.1 -2.2841e-10 2948.6 1278.91 -2.36285e-10 3026.5 1324.23 -2.43402e-10 3102.68 1368.91 -2.49929e-10 3177.23 1412.8 -2.55007e-10 3250.21 1455.78 -2.59231e-10 3321.69 1497.74 -2.63624e-10 3391.73 1538.61 -2.67143e-10 3460.37 1578.31 -2.70732e-10 3488.09 1591.26 -2.73552e-10 3475.55 1578.94 -2.79652e-10 3462.54 1567.27 -2.84097e-10 3449.09 1556.18 -2.88974e-10 3435.25 1545.61 -2.9346e-10 3421.05 1535.51 -2.96687e-10 3406.5 1525.81 -2.99189e-10 3391.64 1516.46 -3.01201e-10 3376.48 1507.44 -3.03577e-10 3361.06 1498.69 -3.05177e-10 3345.38 1490.18 -3.06279e-10 3329.47 1481.88 -3.07195e-10 3313.34 1473.76 -3.07982e-10 3297 1465.79 -3.08564e-10 3280.47 1457.96 -3.08284e-10 2445.01 848.103 -1.75781e-10 2537.77 881.827 -1.8879e-10 2627.76 917.843 -2.00553e-10 2715.25 955.566 -2.1096e-10 2800.43 994.51 -2.19472e-10 2883.49 1034.27 -2.27154e-10 2964.59 1074.49 -2.34252e-10 3043.86 1114.9 -2.39874e-10 3121.4 1155.24 -2.45971e-10 3197.32 1195.3 -2.50102e-10 3271.7 1234.91 -2.53386e-10 3344.62 1273.9 -2.56803e-10 3416.15 1312.14 -2.60522e-10 3486.33 1349.53 -2.6194e-10 3555.23 1385.95 -2.63232e-10 3582.57 1397.16 -2.67736e-10 3568.9 1384.67 -2.72739e-10 3554.78 1373.06 -2.76986e-10 3540.24 1362.25 -2.80019e-10 3525.32 1352.16 -2.83992e-10 3510.05 1342.71 -2.87646e-10 3494.46 1333.84 -2.88883e-10 3478.57 1325.49 -2.91557e-10 3462.41 1317.6 -2.92487e-10 3445.99 1310.13 -2.93339e-10 3429.35 1303.03 -2.94582e-10 3412.49 1296.27 -2.95832e-10 3395.43 1289.8 -2.9639e-10 3378.19 1283.59 -2.9561e-10 3360.78 1277.62 -2.96677e-10 2544.63 734.797 -2.00378e-10 2635.86 757.64 -2.09684e-10 2724.37 783.948 -2.18441e-10 2810.42 812.963 -2.25128e-10 2894.24 844.059 -2.30794e-10 2976.04 876.714 -2.35987e-10 3055.96 910.49 -2.41343e-10 3134.15 945.017 -2.4504e-10 3210.73 979.981 -2.48491e-10 3285.81 1015.11 -2.5076e-10 3359.46 1050.19 -2.55004e-10 3431.77 1085 -2.56091e-10 3502.8 1119.39 -2.56601e-10 3572.62 1153.21 -2.57909e-10 3641.28 1186.32 -2.61515e-10 3667.81 1195.84 -2.63406e-10 3652.68 1183.29 -2.65255e-10 3637.12 1171.9 -2.70469e-10 3621.17 1161.55 -2.72955e-10 3604.86 1152.14 -2.76191e-10 3588.22 1143.58 -2.7872e-10 3571.29 1135.81 -2.81361e-10 3554.09 1128.74 -2.8268e-10 3536.63 1122.3 -2.8504e-10 3518.96 1116.45 -2.85023e-10 3501.07 1111.13 -2.8805e-10 3483 1106.28 -2.87598e-10 3464.75 1101.87 -2.88097e-10 3446.35 1097.86 -2.88388e-10 3427.8 1094.2 -2.881e-10 2644.89 622.142 -2.28511e-10 2733.64 632.524 -2.33449e-10 2819.74 647.812 -2.37548e-10 2903.49 667.027 -2.40834e-10 2985.14 689.368 -2.43358e-10 3064.87 714.168 -2.45478e-10 3142.87 740.871 -2.48411e-10 3219.27 769.01 -2.49049e-10 3294.2 798.19 -2.51787e-10 3367.76 828.073 -2.52377e-10 3440.04 858.373 -2.54082e-10 3511.11 888.843 -2.55024e-10 3581.06 919.269 -2.54456e-10 3649.93 949.467 -2.54761e-10 3717.77 979.279 -2.53807e-10 3743 987.188 -2.5586e-10 3726.01 974.753 -2.61407e-10 3708.63 963.772 -2.62807e-10 3690.89 954.113 -2.63984e-10 3672.82 945.658 -2.67807e-10 3654.46 938.303 -2.69518e-10 3635.84 931.953 -2.71861e-10 3616.98 926.522 -2.73106e-10 3597.89 921.935 -2.74167e-10 3578.62 918.12 -2.75272e-10 3559.16 915.014 -2.77978e-10 3539.55 912.561 -2.76532e-10 3519.79 910.707 -2.77989e-10 3499.9 909.404 -2.78113e-10 3479.89 908.608 -2.7801e-10 2746.53 510.86 -2.58453e-10 2831.63 506.9 -2.60079e-10 2914.25 509.632 -2.59144e-10 2994.69 517.79 -2.59332e-10 3073.19 530.346 -2.58518e-10 3149.96 546.452 -2.57841e-10 3225.16 565.403 -2.57314e-10 3298.95 586.612 -2.55861e-10 3371.43 609.582 -2.5668e-10 3442.71 633.895 -2.55312e-10 3512.88 659.191 -2.54682e-10 3582.01 685.165 -2.53274e-10 3650.16 711.552 -2.5165e-10 3717.41 738.125 -2.51291e-10 3783.79 764.686 -2.50934e-10 3807.15 771.13 -2.53563e-10 3787.85 759.029 -2.53066e-10 3768.2 748.726 -2.55323e-10 3748.23 740.064 -2.57539e-10 3727.98 732.905 -2.59864e-10 3707.48 727.126 -2.62739e-10 3686.75 722.616 -2.61684e-10 3665.82 719.275 -2.63663e-10 3644.71 717.013 -2.64638e-10 3623.43 715.748 -2.6635e-10 3602.01 715.406 -2.6588e-10 3580.46 715.92 -2.65869e-10 3558.8 717.229 -2.66174e-10 3537.03 719.276 -2.69314e-10 3515.18 722.01 -2.68218e-10 2850.49 401.902 -2.92386e-10 2930.53 381.325 -2.87459e-10 3008.36 369.676 -2.83583e-10 3084.26 365.312 -2.77651e-10 3158.49 366.906 -2.74324e-10 3231.22 373.376 -2.7101e-10 3302.62 383.829 -2.6847e-10 3372.82 397.525 -2.64037e-10 3441.94 413.846 -2.61779e-10 3510.06 432.267 -2.58165e-10 3577.27 452.347 -2.55953e-10 3643.64 473.706 -2.53228e-10 3709.22 496.021 -2.51743e-10 3774.07 519.011 -2.4947e-10 3838.23 542.435 -2.45672e-10 3859.1 547.624 -2.45202e-10 3836.95 536.152 -2.48118e-10 3814.5 526.868 -2.49596e-10 3791.81 519.591 -2.50878e-10 3768.88 514.159 -2.51653e-10 3745.75 510.428 -2.52554e-10 3722.44 508.27 -2.53038e-10 3698.97 507.569 -2.54923e-10 3675.36 508.221 -2.5522e-10 3651.62 510.132 -2.55825e-10 3627.77 513.216 -2.58111e-10 3603.83 517.398 -2.55937e-10 3579.8 522.605 -2.55072e-10 3555.69 528.775 -2.5686e-10 3531.53 535.848 -2.55779e-10 2958.05 296.534 -3.30647e-10 3031.24 256.536 -3.20652e-10 3102.66 228.31 -3.1065e-10 3172.55 209.693 -3.02172e-10 3241.13 198.964 -2.94322e-10 3308.55 194.732 -2.85792e-10 3374.96 195.863 -2.81235e-10 3440.45 201.424 -2.73008e-10 3505.14 210.639 -2.68604e-10 3569.09 222.859 -2.63561e-10 3632.37 237.536 -2.59029e-10 3695.03 254.204 -2.55299e-10 3757.13 272.468 -2.50874e-10 3818.7 291.985 -2.4588e-10 3879.79 312.462 -2.41673e-10 3897.44 316.689 -2.40567e-10 3871.83 306.23 -2.41783e-10 3846.01 298.403 -2.41416e-10 3820 292.998 -2.42759e-10 3793.83 289.829 -2.41689e-10 3767.52 288.729 -2.43359e-10 3741.08 289.551 -2.423e-10 3714.52 292.163 -2.42072e-10 3687.87 296.446 -2.42311e-10 3661.13 302.294 -2.44311e-10 3634.32 309.609 -2.43284e-10 3607.44 318.304 -2.43186e-10 3580.51 328.3 -2.4174e-10 3553.53 339.524 -2.41682e-10 3526.52 351.911 -2.42437e-10 3070.9 196.463 -3.74543e-10 3134.95 133.525 -3.5791e-10 3197.92 86.0262 -3.42016e-10 3259.96 51.0855 -3.28472e-10 3321.22 26.4415 -3.15241e-10 3381.8 10.2933 -3.04357e-10 3441.8 1.18914 -2.95586e-10 3501.27 -2.05372 -2.85368e-10 3560.28 -0.408795 -2.76592e-10 3618.88 5.31554 -2.69251e-10 3677.1 14.4426 -2.61348e-10 3734.99 26.4015 -2.56478e-10 3792.57 40.7077 -2.49605e-10 3849.86 56.9469 -2.44597e-10 3906.89 74.7634 -2.39353e-10 3920.49 78.4277 -2.34974e-10 3890.74 69.4737 -2.3483e-10 3860.88 63.6555 -2.36437e-10 3830.92 60.731 -2.33192e-10 3800.86 60.4867 -2.35163e-10 3770.73 62.7336 -2.31676e-10 3740.54 67.3038 -2.33099e-10 3710.28 74.0476 -2.34322e-10 3679.97 82.8311 -2.33673e-10 3649.62 93.5342 -2.32172e-10 3619.24 106.049 -2.31486e-10 3588.82 120.277 -2.29848e-10 3558.37 136.13 -2.28693e-10 3527.9 153.529 -2.31256e-10 3497.42 172.4 -2.29811e-10 3191.41 104.053 -4.27463e-10 3243.28 13.6486 -4.00494e-10 3295.16 -56.4945 -3.78075e-10 3347.04 -110.283 -3.57529e-10 3398.91 -150.729 -3.4033e-10 3450.79 -180.193 -3.25337e-10 3502.66 -200.551 -3.10669e-10 3554.54 -213.313 -2.97737e-10 3606.42 -219.706 -2.87002e-10 3658.29 -220.741 -2.74637e-10 3710.17 -217.254 -2.65864e-10 3762.04 -209.947 -2.573e-10 3813.92 -199.41 -2.49997e-10 3865.8 -186.145 -2.42153e-10 3917.67 -170.581 -2.37505e-10 3926.28 -166.953 -2.3141e-10 3891.63 -173.777 -2.29079e-10 3856.98 -176.896 -2.27061e-10 3822.33 -176.586 -2.2685e-10 3787.68 -173.091 -2.23896e-10 3753.03 -166.624 -2.2262e-10 3718.38 -157.373 -2.22319e-10 3683.73 -145.508 -2.20662e-10 3649.08 -131.177 -2.2053e-10 3614.43 -114.514 -2.19043e-10 3579.77 -95.6372 -2.1807e-10 3545.12 -74.6554 -2.15095e-10 3510.47 -51.665 -2.15679e-10 3475.82 -26.7535 -2.14488e-10 3441.17 0 -2.13641e-10 112.005 3435.28 -2.01908e-10 14.6916 3491.12 -2.2928e-10 -60.8116 3546.97 -2.53212e-10 -118.71 3602.81 -2.73978e-10 -162.247 3658.65 -2.92916e-10 -193.963 3714.49 -3.0968e-10 -215.877 3770.33 -3.24186e-10 -229.614 3826.17 -3.38359e-10 -236.495 3882.01 -3.48522e-10 -237.609 3937.85 -3.61256e-10 -233.856 3993.69 -3.71663e-10 -225.99 4049.53 -3.80566e-10 -214.648 4105.37 -3.88326e-10 -200.37 4161.21 -3.9687e-10 -183.616 4217.05 -4.05522e-10 -179.711 4226.32 -4.10932e-10 -187.057 4189.02 -4.15023e-10 -190.414 4151.72 -4.2065e-10 -190.081 4114.42 -4.21451e-10 -186.318 4077.12 -4.24954e-10 -179.356 4039.82 -4.29888e-10 -169.399 4002.52 -4.29141e-10 -156.627 3965.23 -4.34525e-10 -141.201 3927.93 -4.35159e-10 -123.264 3890.63 -4.39982e-10 -102.945 3853.33 -4.40358e-10 -80.3603 3816.03 -4.43847e-10 -55.6131 3778.73 -4.47301e-10 -28.7979 3741.43 -4.47363e-10 2.33006e-13 3704.13 -4.5145e-10 211.477 3305.56 -1.90795e-10 143.729 3374.52 -2.20004e-10 92.6 3442.29 -2.45716e-10 54.9893 3509.08 -2.68228e-10 28.4621 3575.02 -2.88061e-10 11.0798 3640.23 -3.05211e-10 1.28001 3704.81 -3.20509e-10 -2.21066 3768.82 -3.37112e-10 -0.440034 3832.34 -3.48344e-10 5.72174 3895.42 -3.61465e-10 15.5462 3958.09 -3.71861e-10 28.419 4020.4 -3.82487e-10 43.8184 4082.38 -3.90438e-10 61.2986 4144.05 -3.99229e-10 80.4765 4205.44 -4.06818e-10 84.4208 4220.08 -4.11873e-10 74.7826 4188.06 -4.17749e-10 68.5199 4155.92 -4.23383e-10 65.3719 4123.66 -4.28282e-10 65.1089 4091.31 -4.35631e-10 67.5275 4058.88 -4.41556e-10 72.4469 4026.38 -4.41704e-10 79.7061 3993.81 -4.46468e-10 89.1608 3961.18 -4.48545e-10 100.682 3928.51 -4.54288e-10 114.152 3895.8 -4.56006e-10 129.468 3863.06 -4.58787e-10 146.533 3830.29 -4.6162e-10 165.261 3797.49 -4.65741e-10 185.574 3764.68 -4.67036e-10 319.194 3184.09 -1.81025e-10 276.14 3262.88 -2.11508e-10 245.756 3339.75 -2.40061e-10 225.717 3414.99 -2.63525e-10 214.168 3488.8 -2.85079e-10 209.613 3561.38 -3.04518e-10 210.831 3632.86 -3.21523e-10 216.816 3703.36 -3.35847e-10 226.736 3772.99 -3.49351e-10 239.889 3841.83 -3.61958e-10 255.687 3909.94 -3.73912e-10 273.63 3977.4 -3.85748e-10 293.289 4044.24 -3.93049e-10 314.298 4110.52 -4.01693e-10 336.339 4176.27 -4.08686e-10 340.89 4195.27 -4.17993e-10 329.631 4167.7 -4.23796e-10 321.206 4139.91 -4.31945e-10 315.388 4111.91 -4.39189e-10 311.976 4083.74 -4.40872e-10 310.792 4055.42 -4.47252e-10 311.677 4026.96 -4.50903e-10 314.489 3998.37 -4.58638e-10 319.1 3969.68 -4.60428e-10 325.394 3940.9 -4.66365e-10 333.268 3912.04 -4.67555e-10 342.628 3883.11 -4.72326e-10 353.388 3854.12 -4.72261e-10 365.469 3825.08 -4.76834e-10 378.803 3796 -4.77915e-10 432.614 3068.32 -1.73388e-10 410.465 3154.47 -2.05768e-10 397.926 3238.25 -2.34465e-10 393.228 3319.95 -2.59363e-10 394.944 3399.85 -2.81112e-10 401.908 3478.14 -3.01289e-10 413.16 3555 -3.1898e-10 427.903 3630.56 -3.35386e-10 445.47 3704.96 -3.50165e-10 465.3 3778.29 -3.63073e-10 486.914 3850.64 -3.74632e-10 509.905 3922.07 -3.85096e-10 533.925 3992.67 -3.94365e-10 558.672 4062.47 -4.02906e-10 583.886 4131.53 -4.11668e-10 589.471 4154 -4.19234e-10 577.123 4130.15 -4.27543e-10 567.13 4106 -4.35873e-10 559.296 4081.56 -4.43227e-10 553.449 4056.88 -4.48396e-10 549.433 4031.99 -4.54207e-10 547.11 4006.9 -4.58327e-10 546.355 3981.63 -4.63159e-10 547.057 3956.22 -4.68934e-10 549.114 3930.66 -4.74119e-10 552.435 3904.99 -4.76477e-10 556.936 3879.22 -4.8082e-10 562.541 3853.35 -4.83737e-10 569.182 3827.41 -4.84345e-10 576.796 3801.4 -4.87747e-10 549.898 2956.41 -1.6697e-10 545.636 3048.01 -2.0072e-10 548.576 3136.95 -2.2964e-10 557.358 3223.53 -2.56641e-10 570.873 3308.03 -2.80864e-10 588.21 3390.67 -3.01587e-10 608.609 3471.62 -3.20192e-10 631.439 3551.04 -3.35901e-10 656.165 3629.06 -3.51794e-10 682.335 3705.79 -3.63209e-10 709.564 3781.32 -3.76722e-10 737.522 3855.73 -3.87879e-10 765.926 3929.1 -3.96341e-10 794.53 4001.48 -4.05259e-10 823.121 4072.93 -4.13104e-10 830.057 4098.08 -4.21896e-10 817.032 4077.3 -4.32474e-10 805.941 4056.