<?xml version="1.0"?> 
<VTKFile type="StructuredGrid" version="0.1"> 
<StructuredGrid WholeExtent="0 14 0 14 0 29"> 
<Piece Extent="0 14 0 14 0 29"> 
<PointData>
<DataArray type="Float32" Name="hfield" format="ascii" NumberOfComponents="3"> 
13.5229 -411.558 0.31264 -8.68243 -425.405 -0.0562327 -21.3213 -440.16 -0.341174 -27.5614 -455.92 -0.567904 -29.3573 -472.796 -0.752608 -27.9675 -490.916 -0.905979 -24.2279 -510.426 -1.03537 -18.7054 -531.499 -1.14599 -21.7361 -522.345 -0.960704 -22.7607 -514.006 -0.798887 -21.9103 -506.474 -0.656346 -19.2464 -499.749 -0.52983 -14.7698 -493.844 -0.41678 -8.42342 -488.785 -0.315155 -0.0907336 -484.611 -0.223306 37.4344 -378.607 0.236008 28.8147 -398.231 -0.0429433 25.7484 -417.825 -0.262451 26.4687 -437.741 -0.438724 29.8347 -458.271 -0.582579 35.0887 -479.672 -0.701508 41.7179 -502.196 -0.800866 49.3717 -526.1 -0.884583 45.2681 -519.161 -0.739382 42.7486 -513.2 -0.612605 41.6999 -508.261 -0.501175 42.0605 -504.402 -0.402661 43.8156 -501.702 -0.315119 46.9957 -500.262 -0.236972 51.6788 -500.217 -0.166933 65.0066 -349.317 0.178641 65.9613 -372.081 -0.0327211 70.0615 -394.379 -0.200774 76.3012 -416.635 -0.336292 84.0208 -439.197 -0.446772 92.7819 -462.374 -0.537588 102.294 -486.463 -0.612696 112.367 -511.764 -0.67507 107.802 -506.268 -0.562495 104.559 -501.867 -0.464331 102.552 -498.641 -0.378292 101.737 -496.693 -0.302544 102.106 -496.15 -0.235599 103.688 -497.178 -0.176242 106.559 -499.993 -0.123464 94.2395 -321.688 0.13294 102.191 -346.018 -0.0244425 111.769 -369.662 -0.150286 122.421 -393.041 -0.251911 133.795 -416.512 -0.334561 145.67 -440.396 -0.402093 157.917 -465.005 -0.457408 170.472 -490.655 -0.502726 165.793 -486.027 -0.417641 162.292 -482.567 -0.343577 159.918 -480.378 -0.278847 158.65 -479.59 -0.222086 158.504 -480.367 -0.172173 159.531 -482.919 -0.128185 161.828 -487.524 -0.0893495 124.044 -294.631 0.0945719 137.218 -319.489 -0.0174248 151.03 -343.548 -0.107243 165.225 -367.198 -0.179776 179.657 -390.778 -0.238605 194.263 -414.604 -0.28641 209.032 -438.979 -0.325237 224.002 -464.22 -0.356674 219.396 -460.052 -0.295544 215.906 -457.087 -0.242424 213.514 -455.437 -0.196118 212.234 -455.245 -0.155651 212.113 -456.694 -0.120217 213.24 -460.022 -0.0891469 215.75 -465.546 -0.0618777 153.799 -267.523 0.0608118 170.904 -292.14 -0.0112172 188.004 -315.922 -0.0690651 205.044 -339.21 -0.115757 222.028 -362.311 -0.153535 239.005 -385.515 -0.184101 256.061 -409.11 -0.208764 273.312 -433.393 -0.228551 268.866 -429.407 -0.189005 265.526 -426.628 -0.154689 263.308 -425.166 -0.124837 262.262 -425.163 -0.0988159 262.471 -426.806 -0.0761046 264.066 -430.34 -0.0562655 267.235 -436.097 -0.0389304 183.147 -240.009 0.0297723 203.204 -263.74 -0.00549465 222.843 -286.674 -0.0338357 242.154 -309.09 -0.0566994 261.25 -331.248 -0.0751689 280.269 -353.4 -0.0900702 299.367 -375.803 -0.102044 318.726 -398.728 -0.111595 314.466 -394.744 -0.0921713 311.332 -391.948 -0.075332 309.371 -390.439 -0.0607015 308.666 -390.346 -0.0479699 309.339 -391.845 -0.0368797 311.562 -395.173 -0.0272147 315.576 -400.648 -0.0187927 211.902 -211.902 4.91548e-09 234.129 -234.129 5.41207e-09 255.689 -255.689 5.78128e-09 276.778 -276.778 6.05036e-09 297.594 -297.594 6.2397e-09 318.339 -318.339 6.36492e-09 339.227 -339.227 6.43787e-09 360.49 -360.49 6.4681e-09 356.398 -356.398 7.98864e-09 353.464 -353.464 9.2367e-09 351.763 -351.763 1.02537e-08 351.405 -351.405 1.10737e-08 352.545 -352.545 1.17254e-08 355.391 -355.391 1.22321e-08 360.233 -360.233 1.26143e-08 240.009 -183.147 -0.0297723 263.74 -203.204 0.00549466 286.674 -222.843 0.0338357 309.09 -242.154 0.0566994 331.248 -261.25 0.0751689 353.4 -280.269 0.0900703 375.803 -299.367 0.102044 398.728 -318.726 0.111595 394.744 -314.466 0.0921713 391.948 -311.332 0.075332 390.439 -309.371 0.0607015 390.346 -308.666 0.04797 391.845 -309.339 0.0368797 395.173 -311.562 0.0272148 400.648 -315.576 0.0187927 267.523 -153.799 -0.0608118 292.14 -170.904 0.0112172 315.922 -188.004 0.0690652 339.21 -205.044 0.115757 362.311 -222.028 0.153535 385.515 -239.005 0.184101 409.11 -256.061 0.208764 433.393 -273.312 0.228551 429.407 -268.866 0.189005 426.628 -265.526 0.154689 425.166 -263.308 0.124837 425.163 -262.262 0.0988159 426.806 -262.471 0.0761047 430.34 -264.066 0.0562656 436.097 -267.235 0.0389304 294.631 -124.044 -0.0945719 319.489 -137.218 0.0174249 343.548 -151.03 0.107243 367.198 -165.225 0.179776 390.778 -179.657 0.238605 414.604 -194.263 0.28641 438.979 -209.032 0.325237 464.22 -224.002 0.356674 460.052 -219.396 0.295544 457.087 -215.906 0.242424 455.437 -213.514 0.196118 455.245 -212.234 0.155651 456.694 -212.113 0.120217 460.022 -213.24 0.0891469 465.546 -215.75 0.0618777 321.688 -94.2395 -0.13294 346.018 -102.191 0.0244425 369.662 -111.769 0.150286 393.041 -122.421 0.251911 416.512 -133.795 0.334561 440.396 -145.67 0.402093 465.005 -157.917 0.457408 490.655 -170.472 0.502726 486.027 -165.793 0.417641 482.567 -162.292 0.343577 480.378 -159.918 0.278847 479.59 -158.65 0.222086 480.367 -158.504 0.172173 482.919 -159.531 0.128185 487.524 -161.828 0.0893495 349.317 -65.0066 -0.178641 372.081 -65.9613 0.0327211 394.379 -70.0615 0.200774 416.635 -76.3012 0.336292 439.197 -84.0208 0.446772 462.374 -92.7819 0.537588 486.463 -102.294 0.612696 511.764 -112.367 0.67507 506.268 -107.802 0.562495 501.867 -104.559 0.464331 498.641 -102.552 0.378292 496.693 -101.737 0.302544 496.15 -102.106 0.235599 497.178 -103.688 0.176242 499.993 -106.559 0.123464 378.607 -37.4344 -0.236008 398.231 -28.8147 0.0429433 417.825 -25.7484 0.262451 437.741 -26.4687 0.438724 458.271 -29.8347 0.582579 479.672 -35.0887 0.701508 502.196 -41.7179 0.800866 526.1 -49.3717 0.884583 519.161 -45.2681 0.739382 513.2 -42.7486 0.612605 508.261 -41.6999 0.501175 504.402 -42.0605 0.402661 501.702 -43.8156 0.315119 500.262 -46.9957 0.236972 500.217 -51.6788 0.166933 411.558 -13.5229 -0.31264 425.405 8.68243 0.0562327 440.16 21.3213 0.341174 455.92 27.5614 0.567904 472.796 29.3573 0.752608 490.916 27.9675 0.905979 510.426 24.2279 1.03537 531.499 18.7054 1.14599 522.345 21.7361 0.960704 514.006 22.7607 0.798887 506.474 21.9103 0.656346 499.749 19.2464 0.52983 493.844 14.7698 0.41678 488.785 8.42342 0.315155 484.611 0.0907336 0.223306 10.2344 -260.124 1.0741 -4.90254 -269.132 0.730328 -13.3038 -278.512 0.627119 -17.2522 -288.318 0.617108 -18.1517 -298.609 0.61243 -16.9063 -309.451 0.55823 -14.118 -320.915 0.418773 -10.1988 -333.083 0.169645 -13.0563 -321.421 0.635219 -14.3414 -310.199 0.941619 -14.1859 -299.372 1.08307 -12.6683 -288.899 1.05087 -9.82294 -278.738 0.8331 -5.64482 -268.846 0.414203 -0.0917012 -259.182 -0.225688 24.5494 -238.741 0.027387 18.4819 -251.918 -0.0855914 16.3348 -264.757 -0.0615788 16.8268 -277.492 0.00398212 19.1291 -290.305 0.052825 22.6887 -303.348 0.0485852 27.1269 -316.76 -0.0318134 32.1801 -330.673 -0.203263 28.1444 -320.542 0.20855 25.3743 -310.88 0.492377 23.7553 -301.673 0.645942 23.2126 -292.907 0.664792 23.7044 -284.568 0.542087 25.2185 -276.644 0.268253 27.7715 -269.125 -0.16954 41.23 -219.723 -0.485219 41.6694 -235.257 -0.487704 44.3053 -250.127 -0.409652 48.4025 -264.611 -0.316273 53.4738 -278.928 -0.247625 59.1898 -293.263 -0.228328 65.3252 -307.78 -0.273315 71.7252 -322.637 -0.391386 66.9176 -313.645 -0.0421557 63.1506 -305.15 0.206351 60.3306 -297.157 0.354008 58.3928 -289.67 0.399108 57.2976 -282.697 0.338196 57.0283 -276.248 0.165808 57.5901 -270.339 -0.125925 59.0572 -201.851 -0.670736 64.3329 -218.621 -0.626088 70.6956 -234.573 -0.533782 77.7344 -249.98 -0.439063 85.1786 -265.062 -0.369644 92.8492 -280.011 -0.342165 100.63 -294.998 -0.366153 108.449 -310.187 -0.446544 103.122 -302.03 -0.16449 98.6746 -294.393 0.0407959 95.0356 -287.292 0.170322 92.1541 -280.745 0.22397 89.9988 -274.771 0.200377 88.5566 -269.397 0.0967436 87.8324 -264.659 -0.0914532 77.3585 -184.454 -0.649053 86.3009 -201.691 -0.592962 95.5943 -218.048 -0.509183 105.034 -233.773 -0.428399 114.495 -249.072 -0.369273 123.904 -264.126 -0.34273 133.224 -279.102 -0.354645 142.447 -294.163 -0.407589 136.75 -286.612 -0.194995 131.822 -279.604 -0.0378014 127.611 -273.156 0.0653707 124.083 -267.291 0.115133 121.217 -262.038 0.111248 119.011 -257.431 0.0524974 117.476 -253.519 -0.0635118 95.7457 -167.143 -0.496476 107.488 -184.263 -0.449629 119.087 -200.507 -0.387681 130.477 -216.083 -0.329751 141.634 -231.173 -0.287386 152.562 -245.942 -0.267194 163.286 -260.543 -0.272528 173.846 -275.127 -0.304592 167.863 -268.025 -0.162516 162.572 -261.483 -0.0563585 157.941 -255.52 0.0150889 153.951 -250.156 0.052557 150.598 -245.421 0.0562495 147.887 -241.356 0.0257619 145.842 -238.012 -0.0400393 113.995 -149.694 -0.266336 127.861 -166.204 -0.240301 141.253 -181.898 -0.207642 154.205 -196.94 -0.177554 166.766 -211.479 -0.155561 178.998 -225.652 -0.144774 190.972 -239.593 -0.146709 202.768 -253.438 -0.16182 196.534 -246.677 -0.0907062 190.941 -240.498 -0.0372509 185.974 -234.909 -0.000765829 181.629 -229.929 0.0192097 177.913 -225.583 0.0228836 174.845 -221.909 0.0101734 172.46 -218.957 -0.0193516 131.99 -131.99 3.51518e-09 147.423 -147.423 4.61263e-09 162.168 -162.168 5.4478e-09 176.332 -176.332 6.07697e-09 190.02 -190.02 6.54193e-09 203.338 -203.338 6.87523e-09 216.392 -216.392 7.10149e-09 229.293 -229.293 7.2404e-09 222.811 -222.811 8.0628e-09 216.934 -216.934 8.68324e-09 211.663 -211.663 9.13141e-09 207.005 -207.005 9.43147e-09 202.979 -202.979 9.6029e-09 199.614 -199.614 9.66181e-09 196.956 -196.956 9.62081e-09 149.694 -113.995 0.266336 166.204 -127.861 0.240301 181.898 -141.253 0.207642 196.94 -154.205 0.177554 211.479 -166.766 0.155561 225.652 -178.998 0.144774 239.593 -190.972 0.146709 253.438 -202.768 0.16182 246.677 -196.534 0.0907062 240.498 -190.941 0.0372509 234.909 -185.974 0.000765846 229.929 -181.629 -0.0192096 225.583 -177.913 -0.0228836 221.909 -174.845 -0.0101733 218.957 -172.46 0.0193516 167.143 -95.7457 0.496476 184.263 -107.488 0.449629 200.507 -119.087 0.387681 216.083 -130.477 0.329751 231.173 -141.634 0.287386 245.942 -152.562 0.267194 260.543 -163.286 0.272528 275.127 -173.846 0.304592 268.025 -167.863 0.162517 261.483 -162.572 0.0563585 255.52 -157.941 -0.0150889 250.156 -153.951 -0.052557 245.421 -150.598 -0.0562495 241.356 -147.887 -0.0257619 238.012 -145.842 0.0400393 184.454 -77.3585 0.649053 201.691 -86.3009 0.592962 218.048 -95.5943 0.509183 233.773 -105.034 0.428399 249.072 -114.495 0.369273 264.126 -123.904 0.34273 279.102 -133.224 0.354645 294.163 -142.447 0.407589 286.612 -136.75 0.194995 279.604 -131.822 0.0378014 273.156 -127.611 -0.0653706 267.291 -124.083 -0.115133 262.038 -121.217 -0.111248 257.431 -119.011 -0.0524974 253.519 -117.476 0.0635119 201.851 -59.0572 0.670736 218.621 -64.3329 0.626088 234.573 -70.6956 0.533782 249.98 -77.7344 0.439063 265.062 -85.1786 0.369644 280.011 -92.8492 0.342165 294.998 -100.63 0.366153 310.187 -108.449 0.446544 302.03 -103.122 0.16449 294.393 -98.6746 -0.0407959 287.292 -95.0356 -0.170322 280.745 -92.1541 -0.22397 274.771 -89.9988 -0.200377 269.397 -88.5566 -0.0967436 264.659 -87.8324 0.0914532 219.723 -41.23 0.485219 235.257 -41.6694 0.487704 250.127 -44.3053 0.409652 264.611 -48.4025 0.316273 278.928 -53.4738 0.247625 293.263 -59.1898 0.228328 307.78 -65.3252 0.273315 322.637 -71.7252 0.391386 313.645 -66.9176 0.0421557 305.15 -63.1506 -0.206351 297.157 -60.3306 -0.354008 289.67 -58.3928 -0.399108 282.697 -57.2976 -0.338196 276.248 -57.0283 -0.165808 270.339 -57.5901 0.125925 238.741 -24.5494 -0.027387 251.918 -18.4819 0.0855914 264.757 -16.3348 0.0615788 277.492 -16.8268 -0.00398211 290.305 -19.1291 -0.052825 303.348 -22.6887 -0.0485852 316.76 -27.1269 0.0318134 330.673 -32.1801 0.203263 320.542 -28.1444 -0.20855 310.88 -25.3743 -0.492377 301.673 -23.7553 -0.645942 292.907 -23.2126 -0.664792 284.568 -23.7044 -0.542087 276.644 -25.2185 -0.268253 269.125 -27.7715 0.16954 260.124 -10.2344 -1.0741 269.132 4.90254 -0.730328 278.512 13.3038 -0.627119 288.318 17.2522 -0.617108 298.609 18.1517 -0.61243 309.451 16.9063 -0.55823 320.915 14.118 -0.418773 333.083 10.1988 -0.169645 321.421 13.0563 -0.635219 310.199 14.3414 -0.941619 299.372 14.1859 -1.08307 288.899 12.6683 -1.05087 278.738 9.82294 -0.8331 268.846 5.64482 -0.414203 259.182 0.0917012 0.225688 6.58734 -119.881 0.403068 -1.13921 -122.35 0.292115 -5.40804 -124.936 0.331363 -7.45726 -127.664 0.405725 -8.02518 -130.56 0.448004 -7.57773 -133.653 0.41657 -6.42194 -136.976 0.284125 -4.76687 -140.567 0.0315527 -5.99186 -134.152 0.495571 -6.57356 -127.855 0.780853 -6.54523 -121.66 0.892352 -5.91635 -115.548 0.8289 -4.67541 -109.496 0.583534 -2.79046 -103.479 0.143312 -0.20779 -97.4637 -0.511395 13.7265 -110.835 -0.0135092 9.85361 -115.458 -0.0527227 8.13204 -119.845 0.0103565 7.82741 -124.109 0.0924798 8.47484 -128.331 0.143323 9.76665 -132.578 0.131498 11.4921 -136.907 0.0369758 13.5029 -141.372 -0.153306 11.5767 -135.506 0.235097 10.1773 -129.747 0.48019 9.27083 -124.096 0.587823 8.84008 -118.551 0.559704 8.88248 -113.104 0.39368 9.40903 -107.747 0.0837016 10.4446 -102.466 -0.380508 21.5536 -102.478 -0.219842 20.5885 -108.433 -0.225745 20.9332 -113.996 -0.159456 22.1395 -119.294 -0.0825958 23.9114 -124.422 -0.0332261 26.0463 -129.454 -0.0350682 28.4019 -134.453 -0.102791 30.8765 -139.477 -0.245211 28.418 -134.055 0.0718191 26.3862 -128.725 0.276112 24.7522 -123.496 0.373589 23.4988 -118.376 0.367379 22.6184 -113.368 0.25804 22.1126 -108.472 0.0435905 21.9919 -103.687 -0.280635 29.7143 -94.4534 -0.293616 31.0054 -101.183 -0.285535 33.0416 -107.461 -0.226246 35.5469 -113.403 -0.161066 38.334 -119.096 -0.118362 41.2721 -124.61 -0.11574 44.2682 -130.005 -0.16375 47.2561 -135.333 -0.268206 44.3801 -130.275 -0.0189179 41.8444 -125.295 0.144401 39.6277 -120.407 0.227132 37.7165 -115.625 0.232791 36.1035 -110.955 0.163195 34.7873 -106.406 0.0185163 33.7723 -101.98 -0.202778 38.0057 -86.5601 -0.281682 41.0708 -93.649 -0.269795 44.4906 -100.283 -0.222646 48.0988 -106.554 -0.172271 51.7805 -112.534 -0.138887 55.4556 -118.28 -0.134977 59.0676 -123.844 -0.16781 62.5772 -129.272 -0.241071 59.3609 -124.52 -0.0566156 56.4107 -119.839 0.0657533 53.7139 -115.245 0.130427 51.262 -110.752 0.14059 49.0509 -106.371 0.0983329 47.0795 -102.112 0.00469974 45.3505 -97.9806 -0.140325 46.3081 -78.6777 -0.214827 50.7667 -85.7934 -0.204598 55.3049 -92.4875 -0.172169 59.8297 -98.8252 -0.138072 64.2774 -104.858 -0.115326 68.6045 -110.629 -0.111931 72.7821 -116.176 -0.132442 76.7918 -121.537 -0.179008 73.286 -117.053 -0.0572243 69.984 -112.641 0.0242823 66.8809 -108.319 0.0686016 63.9742 -104.1 0.0781012 61.2635 -99.9944 0.0544962 58.75 -96.012 -0.00111641 56.437 -92.1609 -0.0882582 54.5511 -70.7359 -0.115121 60.0851 -77.5909 -0.109396 65.5022 -84.0897 -0.0929304 70.7623 -90.2668 -0.0757619 75.8393 -96.1514 -0.0642694 80.7179 -101.77 -0.0623601 85.3904 -107.147 -0.0722274 89.8556 -112.309 -0.0948553 86.0922 -108.069 -0.0343165 82.4818 -103.917 0.00641242 79.0268 -99.865 0.0289242 75.7302 -95.9253 0.0344732 72.5954 -92.1072 0.0240086 69.6264 -88.419 -0.00180808 66.828 -84.8685 -0.0426006 62.6976 -62.6976 2.93209e-09 69.0249 -69.0249 4.1265e-09 75.0949 -75.0949 5.04061e-09 80.9081 -80.9081 5.73367e-09 86.4683 -86.4683 6.24979e-09 91.7828 -91.7828 6.62179e-09 96.8614 -96.8614 6.87534e-09 101.717 -101.717 7.03078e-09 97.7134 -97.7134 7.54701e-09 93.8237 -93.8237 7.9001e-09 90.0567 -90.0567 8.11151e-09 86.4201 -86.4201 8.19869e-09 82.9207 -82.9207 8.17627e-09 79.565 -79.565 8.0562e-09 76.3594 -76.3594 7.84809e-09 70.7359 -54.5511 0.115121 77.5909 -60.0851 0.109396 84.0897 -65.5022 0.0929304 90.2668 -70.7623 0.0757619 96.1514 -75.8393 0.0642694 101.77 -80.7179 0.0623601 107.147 -85.3904 0.0722274 112.309 -89.8556 0.0948553 108.069 -86.0922 0.0343166 103.917 -82.4818 -0.0064124 99.865 -79.0268 -0.0289242 95.9253 -75.7302 -0.0344732 92.1072 -72.5954 -0.0240086 88.419 -69.6264 0.0018081 84.8685 -66.828 0.0426006 78.6777 -46.3081 0.214827 85.7934 -50.7667 0.204598 92.4875 -55.3049 0.172169 98.8252 -59.8297 0.138072 104.858 -64.2774 0.115326 110.629 -68.6045 0.111931 116.176 -72.7821 0.132442 121.537 -76.7918 0.179009 117.053 -73.286 0.0572243 112.641 -69.984 -0.0242823 108.319 -66.8809 -0.0686016 104.1 -63.9742 -0.0781011 99.9944 -61.2635 -0.0544962 96.012 -58.75 0.00111642 92.1609 -56.437 0.0882583 86.5601 -38.0057 0.281682 93.649 -41.0708 0.269795 100.283 -44.4906 0.222646 106.554 -48.0988 0.172271 112.534 -51.7805 0.138887 118.28 -55.4556 0.134977 123.844 -59.0676 0.16781 129.272 -62.5772 0.241071 124.52 -59.3609 0.0566156 119.839 -56.4107 -0.0657533 115.245 -53.7139 -0.130427 110.752 -51.262 -0.14059 106.371 -49.0509 -0.0983329 102.112 -47.0795 -0.00469973 97.9806 -45.3505 0.140325 94.4534 -29.7143 0.293616 101.183 -31.0054 0.285535 107.461 -33.0416 0.226246 113.403 -35.5469 0.161066 119.096 -38.334 0.118362 124.61 -41.2721 0.11574 130.005 -44.2682 0.16375 135.333 -47.2561 0.268206 130.275 -44.3801 0.018918 125.295 -41.8444 -0.144401 120.407 -39.6277 -0.227132 115.625 -37.7165 -0.232791 110.955 -36.1035 -0.163195 106.406 -34.7873 -0.0185163 101.98 -33.7723 0.202778 102.478 -21.5536 0.219842 108.433 -20.5885 0.225745 113.996 -20.9332 0.159456 119.294 -22.1395 0.0825958 124.422 -23.9114 0.0332261 129.454 -26.0463 0.0350682 134.453 -28.4019 0.102791 139.477 -30.8765 0.245212 134.055 -28.418 -0.0718191 128.725 -26.3862 -0.276112 123.496 -24.7522 -0.373589 118.376 -23.4988 -0.367379 113.368 -22.6184 -0.25804 108.472 -22.1126 -0.0435905 103.687 -21.9919 0.280635 110.835 -13.7265 0.0135092 115.458 -9.85361 0.0527227 119.845 -8.13204 -0.0103565 124.109 -7.82741 -0.0924798 128.331 -8.47484 -0.143323 132.578 -9.76665 -0.131498 136.907 -11.4921 -0.0369758 141.372 -13.5029 0.153306 135.506 -11.5767 -0.235097 129.747 -10.1773 -0.48019 124.096 -9.27083 -0.587823 118.551 -8.84008 -0.559704 113.104 -8.88248 -0.39368 107.747 -9.40903 -0.0837016 102.466 -10.4446 0.380508 119.881 -6.58734 -0.403068 122.35 1.13921 -0.292115 124.936 5.40804 -0.331363 127.664 7.45726 -0.405725 130.56 8.02518 -0.448004 133.653 7.57773 -0.41657 136.976 6.42194 -0.284125 140.567 4.76687 -0.0315527 134.152 5.99186 -0.495571 127.855 6.57356 -0.780853 121.66 6.54523 -0.892352 115.548 5.91635 -0.8289 109.496 4.67541 -0.583534 103.479 2.79046 -0.143312 97.4637 0.20779 0.511395 0.237597 -32.2654 -0.0646205 -1.81593 -31.0941 0.050067 -3.00217 -29.9491 0.149225 -3.60841 -28.8275 0.221097 -3.80194 -27.7263 0.25837 -3.68532 -26.6425 0.25594 -3.32367 -25.5736 0.209799 -2.7591 -24.5165 0.116429 -2.39658 -22.6647 0.175086 -2.06929 -20.8063 0.196772 -1.74657 -18.9357 0.186881 -1.40262 -17.0472 0.148632 -1.01479 -15.1347 0.0835686 -0.562383 -13.1916 -0.00812746 -0.0257309 -11.211 -0.127434 3.52019 -30.9726 -0.122223 2.29083 -30.5926 -0.0282151 1.60037 -30.1673 0.0523515 1.27997 -29.7166 0.110044 1.22486 -29.2527 0.139127 1.3672 -28.7837 0.135905 1.66159 -28.3149 0.09784 2.07703 -27.8499 0.0230499 1.8384 -25.7007 0.0794224 1.61658 -23.5673 0.106645 1.42949 -21.4441 0.109064 1.29263 -19.3255 0.0893306 1.22001 -17.2059 0.0487694 1.2247 -15.0794 -0.0123736 1.31937 -12.9398 -0.0947753 6.61275 -29.4897 -0.140791 6.02437 -29.6603 -0.066247 5.75973 -29.7552 -0.00280654 5.71789 -29.7996 0.0420433 5.83324 -29.8098 0.0638572 6.0615 -29.7974 0.0599934 6.37192 -29.7705 0.0289167 6.74272 -29.7357 -0.0302147 6.00352 -27.3963 0.020547 5.31416 -25.0871 0.0487398 4.68476 -22.8038 0.0577768 4.12432 -20.5422 0.0497649 3.64108 -18.2981 0.0257817 3.24289 -16.067 -0.0139372 2.9374 -13.8439 -0.0698747 9.53941 -27.841 -0.134655 9.45119 -28.3868 -0.0776875 9.54346 -28.8467 -0.0295091 9.75573 -29.2433 0.00411915 10.0473 -29.5924 0.0198524 10.39 -29.9053 0.0158507 10.7636 -30.1905 -0.00875533 11.1537 -30.4546 -0.0541949 9.99511 -28.0105 -0.0113485 8.9055 -25.607 0.0145293 7.89055 -23.2417 0.0260277 6.95533 -20.9121 0.0247547 6.10448 -18.6154 0.0115409 5.34243 -16.3487 -0.01342 4.67346 -14.1083 -0.0504755 12.314 -26.0402 -0.112504 12.6122 -26.8271 -0.0713647 12.9948 -27.5275 -0.0367628 13.4264 -28.1595 -0.0128886 13.8824 -28.7358 -0.0021284 14.3456 -29.2658 -0.00570593 14.8036 -29.7569 -0.0240723 15.2474 -30.2149 -0.0571529 13.7371 -27.7371 -0.0238123 12.3052 -25.3089 -0.00258422 10.9547 -22.9293 0.00838923 9.68872 -20.5975 0.0102645 8.5097 -18.3119 0.00364051 7.42002 -16.0709 -0.0113405 6.42184 -13.8721 -0.0349227 14.9449 -24.0957 -0.0800714 15.5329 -25.015 -0.0534011 16.1411 -25.8536 -0.0310653 16.7499 -26.6239 -0.015796 17.3457 -27.3348 -0.0091256 17.919 -27.9931 -0.0117967 18.4628 -28.6041 -0.0240168 18.9724 -29.1724 -0.0456227 17.1696 -26.7229 -0.0228536 15.4474 -24.3312 -0.00787439 13.8079 -21.9977 0.000512999 12.253 -19.7224 0.00305462 10.784 -17.505 0.00013643 9.4023 -15.3447 -0.00815007 8.10865 -13.24 -0.0219619 17.4368 -22.0122 -0.0414813 18.2288 -22.9713 -0.0283719 18.9981 -23.8611 -0.0174232 19.7361 -24.6879 -0.00998292 20.4368 -25.4563 -0.00679961 21.0963 -26.17 -0.00822277 21.7117 -26.8322 -0.0143286 22.2814 -27.4456 -0.0250023 20.24 -25.0802 -0.0134612 18.2767 -22.7805 -0.00573089 16.3933 -20.5477 -0.00122468 14.5911 -18.3823 0.000422754 12.871 -16.2847 -0.000599943 11.2336 -14.2547 -0.0042484 9.6792 -12.2915 -0.0105997 19.7923 -19.7923 2.78703e-09 20.7077 -20.7077 3.91455e-09 21.5722 -21.5722 4.77667e-09 22.3852 -22.3852 5.42916e-09 23.1467 -23.1467 5.91243e-09 23.8567 -23.8567 6.25682e-09 24.5159 -24.5159 6.4854e-09 25.125 -25.125 6.61653e-09 22.8961 -22.8961 7.15179e-09 20.7401 -20.7401 7.52962e-09 18.6582 -18.6582 7.77392e-09 16.6517 -16.6517 7.90479e-09 14.7211 -14.7211 7.93897e-09 12.8667 -12.8667 7.89095e-09 11.0881 -11.0881 7.77322e-09 22.0122 -17.4368 0.0414813 22.9713 -18.2288 0.0283719 23.8611 -18.9981 0.0174232 24.6879 -19.7361 0.00998293 25.4563 -20.4368 0.00679962 26.17 -21.0963 0.00822278 26.8322 -21.7117 0.0143286 27.4456 -22.2814 0.0250023 25.0802 -20.24 0.0134612 22.7805 -18.2767 0.0057309 20.5477 -16.3933 0.00122469 18.3823 -14.5911 -0.000422739 16.2847 -12.871 0.000599958 14.2547 -11.2336 0.00424842 12.2915 -9.6792 0.0105997 24.0957 -14.9449 0.0800714 25.015 -15.5329 0.0534011 25.8536 -16.1411 0.0310653 26.6239 -16.7499 0.015796 27.3348 -17.3457 0.00912561 27.9931 -17.919 0.0117967 28.6041 -18.4628 0.0240168 29.1724 -18.9724 0.0456227 26.7229 -17.1696 0.0228536 24.3312 -15.4474 0.00787441 21.9977 -13.8079 -0.000512985 19.7224 -12.253 -0.00305461 17.505 -10.784 -0.000136416 15.3447 -9.4023 0.00815008 13.24 -8.10865 0.0219619 26.0402 -12.314 0.112504 26.8271 -12.6122 0.0713647 27.5275 -12.9948 0.0367628 28.1595 -13.4264 0.0128887 28.7358 -13.8824 0.00212841 29.2658 -14.3456 0.00570595 29.7569 -14.8036 0.0240724 30.2149 -15.2474 0.0571529 27.7371 -13.7371 0.0238123 25.3089 -12.3052 0.00258423 22.9293 -10.9547 -0.00838921 20.5975 -9.68872 -0.0102645 18.3119 -8.5097 -0.00364049 16.0709 -7.42002 0.0113405 13.8721 -6.42184 0.0349227 27.841 -9.53941 0.134655 28.3868 -9.45119 0.0776875 28.8467 -9.54346 0.0295091 29.2433 -9.75573 -0.00411914 29.5924 -10.0473 -0.0198523 29.9053 -10.39 -0.0158507 30.1905 -10.7636 0.00875534 30.4546 -11.1537 0.0541949 28.0105 -9.99511 0.0113485 25.607 -8.9055 -0.0145293 23.2417 -7.89055 -0.0260277 20.9121 -6.95533 -0.0247547 18.6154 -6.10448 -0.0115409 16.3487 -5.34243 0.01342 14.1083 -4.67346 0.0504756 29.4897 -6.61275 0.140791 29.6603 -6.02437 0.066247 29.7552 -5.75973 0.00280655 29.7996 -5.71789 -0.0420433 29.8098 -5.83324 -0.0638572 29.7974 -6.0615 -0.0599934 29.7705 -6.37192 -0.0289167 29.7357 -6.74272 0.0302148 27.3963 -6.00352 -0.020547 25.0871 -5.31416 -0.0487398 22.8038 -4.68476 -0.0577768 20.5422 -4.12432 -0.0497649 18.2981 -3.64108 -0.0257817 16.067 -3.24289 0.0139373 13.8439 -2.9374 0.0698747 30.9726 -3.52019 0.122223 30.5926 -2.29083 0.0282151 30.1673 -1.60037 -0.0523515 29.7166 -1.27997 -0.110044 29.2527 -1.22486 -0.139127 28.7837 -1.3672 -0.135905 28.3149 -1.66159 -0.09784 27.8499 -2.07703 -0.0230499 25.7007 -1.8384 -0.0794224 23.5673 -1.61658 -0.106645 21.4441 -1.42949 -0.109064 19.3255 -1.29263 -0.0893306 17.2059 -1.22001 -0.0487694 15.0794 -1.2247 0.0123736 12.9398 -1.31937 0.0947753 32.2654 -0.237597 0.0646205 31.0941 1.81593 -0.050067 29.9491 3.00217 -0.149225 28.8275 3.60841 -0.221097 27.7263 3.80194 -0.25837 26.6425 3.68532 -0.25594 25.5736 3.32367 -0.209799 24.5165 2.7591 -0.116429 22.6647 2.39658 -0.175086 20.8063 2.06929 -0.196772 18.9357 1.74657 -0.186881 17.0472 1.40262 -0.148632 15.1347 1.01479 -0.0835686 13.1916 0.562383 0.00812747 11.211 0.0257309 0.127434 -7.69321 49.5123 -0.493634 -4.06356 54.367 -0.14138 -2.14707 59.277 0.0077739 -1.25104 64.2554 0.0712553 -0.964473 69.3156 0.115271 -1.02574 74.4715 0.178789 -1.25794 79.7378 0.285194 -1.53482 85.1301 0.448417 0.159814 83.8447 -0.0526304 1.23696 82.616 -0.377857 1.7996 81.4417 -0.531674 1.92231 80.3202 -0.515549 1.65899 79.2499 -0.328446 1.04805 78.2294 0.032918 0.115891 77.2576 0.573957 -7.80527 43.6502 -0.307407 -6.3467 49.0092 -0.0374582 -5.95197 54.2193 0.0779925 -6.20073 59.3391 0.125616 -6.82832 64.4091 0.156517 -7.65846 69.4594 0.20151 -8.56788 74.5144 0.279121 -9.46645 79.5948 0.400051 -8.32737 79.281 0.00488243 -7.59681 78.9678 -0.250269 -7.19806 78.6664 -0.371038 -7.07339 78.3864 -0.361493 -7.17906 78.1359 -0.224366 -7.48187 77.9227 0.038806 -7.95675 77.7538 0.427616 -8.91754 38.7883 -0.188613 -9.06637 44.3372 0.0192191 -9.86357 49.6401 0.108886 -11.0449 54.7646 0.145008 -12.4367 59.7571 0.16691 -13.919 64.6514 0.198709 -15.4063 69.4737 0.254904 -16.8348 74.2458 0.343648 -16.2168 74.612 0.0367915 -15.8496 74.9352 -0.160355 -15.6781 75.2324 -0.25375 -15.6599 75.5181 -0.248595 -15.7623 75.8054 -0.149435 -15.9596 76.1061 0.0397874 -16.2318 76.4318 0.315712 -10.6666 34.5632 -0.112623 -12.0577 40.1078 0.04457 -13.8148 45.3661 0.112901 -15.7698 50.3999 0.139965 -17.8083 55.2522 0.155382 -19.8499 59.9541 0.177534 -21.8357 64.5299 0.217462 -23.7219 68.9993 0.281238 -23.5769 69.8166 0.0495757 -23.5637 70.558 -0.0986036 -23.6448 71.242 -0.168867 -23.7913 71.8843 -0.166473 -23.9807 72.4995 -0.0963987 -24.1953 73.1009 0.0366645 -24.4218 73.702 0.228313 -12.8429 30.7654 -0.0644402 -15.2228 36.1701 0.0489383 -17.7678 41.2828 0.0985231 -20.3728 46.1531 0.117936 -22.9645 50.8159 0.128431 -25.4903 55.2967 0.143305 -27.9118 59.6151 0.170536 -30.2 63.7876 0.214435 -30.47 64.8731 0.0483714 -30.7833 65.8607 -0.0574616 -31.1162 66.7671 -0.107691 -31.4509 67.6074 -0.106863 -31.7739 68.3952 -0.0594268 -32.0753 69.1441 0.0302881 -32.3478 69.8672 0.158095 -15.3217 27.27 -0.0341362 -18.5037 32.4278 0.0395293 -21.7034 37.3123 0.0718889 -24.8594 41.9578 0.084465 -27.928 46.3885 0.0910022 -30.8778 50.6222 0.100146 -33.6853 54.6729 0.117079 -36.3336 58.5521 0.144565 -36.9536 59.7575 0.0373849 -37.5521 60.8539 -0.0307356 -38.1167 61.8547 -0.0630912 -38.6386 62.7726 -0.0629861 -39.1119 63.6194 -0.0337062 -39.5332 64.407 0.0215067 -39.9009 65.1477 0.0994784 -18.0296 24.0038 -0.0145504 -21.8689 28.8191 0.0217468 -25.6158 33.4005 0.0377343 -29.2412 37.7645 0.0439222 -32.7239 41.9225 0.0470619 -36.0484 45.8833 0.0514125 -39.2037 49.6537 0.0595261 -42.182 53.2399 0.0727529 -43.0797 54.4423 0.0201967 -43.9109 55.5363 -0.0131506 -44.6722 56.531 -0.028998 -45.3619 57.4355 -0.0290769 -45.9803 58.2586 -0.0151222 -46.5293 59.0098 0.0111446 -47.0123 59.6995 0.0480289 -20.9277 20.9277 2.63051e-09 -25.306 25.306 3.68986e-09 -29.51 29.51 4.497e-09 -33.5354 33.5354 5.10583e-09 -37.3788 37.3788 5.55496e-09 -41.0381 41.0381 5.87331e-09 -44.5119 44.5119 6.08294e-09 -47.8001 47.8001 6.20111e-09 -48.8953 48.8953 6.75054e-09 -49.8958 49.8958 7.14032e-09 -50.8051 50.8051 7.39438e-09 -51.6275 51.6275 7.53271e-09 -52.3682 52.3682 7.57214e-09 -53.0332 53.0332 7.52726e-09 -53.6299 53.6299 7.41038e-09 -24.0038 18.0296 0.0145504 -28.8191 21.8689 -0.0217468 -33.4005 25.6158 -0.0377343 -37.7645 29.2412 -0.0439222 -41.9225 32.7239 -0.0470619 -45.8833 36.0484 -0.0514125 -49.6537 39.2037 -0.0595261 -53.2399 42.182 -0.0727529 -54.4423 43.0797 -0.0201966 -55.5363 43.9109 0.0131506 -56.531 44.6722 0.028998 -57.4355 45.3619 0.029077 -58.2586 45.9803 0.0151222 -59.0098 46.5293 -0.0111445 -59.6995 47.0123 -0.0480288 -27.27 15.3217 0.0341362 -32.4278 18.5037 -0.0395292 -37.3123 21.7034 -0.0718889 -41.9578 24.8594 -0.084465 -46.3885 27.928 -0.0910022 -50.6222 30.8778 -0.100146 -54.6729 33.6853 -0.117079 -58.5521 36.3336 -0.144565 -59.7575 36.9536 -0.0373849 -60.8539 37.5521 0.0307356 -61.8547 38.1167 0.0630912 -62.7726 38.6386 0.0629861 -63.6194 39.1119 0.0337062 -64.407 39.5332 -0.0215067 -65.1477 39.9009 -0.0994784 -30.7654 12.8429 0.0644402 -36.1701 15.2228 -0.0489383 -41.2828 17.7678 -0.0985231 -46.1531 20.3728 -0.117936 -50.8159 22.9645 -0.128431 -55.2967 25.4903 -0.143305 -59.6151 27.9118 -0.170536 -63.7876 30.2 -0.214435 -64.8731 30.47 -0.0483714 -65.8607 30.7833 0.0574616 -66.7671 31.1162 0.107691 -67.6074 31.4509 0.106863 -68.3952 31.7739 0.0594268 -69.1441 32.0753 -0.0302881 -69.8672 32.3478 -0.158095 -34.5632 10.6666 0.112623 -40.1078 12.0577 -0.04457 -45.3661 13.8148 -0.112901 -50.3999 15.7698 -0.139965 -55.2522 17.8083 -0.155382 -59.9541 19.8499 -0.177534 -64.5299 21.8357 -0.217462 -68.9993 23.7219 -0.281238 -69.8166 23.5769 -0.0495757 -70.558 23.5637 0.0986036 -71.242 23.6448 0.168867 -71.8843 23.7913 0.166473 -72.4995 23.9807 0.0963987 -73.1009 24.1953 -0.0366645 -73.702 24.4218 -0.228313 -38.7883 8.91754 0.188613 -44.3372 9.06637 -0.019219 -49.6401 9.86357 -0.108886 -54.7646 11.0449 -0.145008 -59.7571 12.4367 -0.16691 -64.6514 13.919 -0.198709 -69.4737 15.4063 -0.254904 -74.2458 16.8348 -0.343648 -74.612 16.2168 -0.0367915 -74.9352 15.8496 0.160355 -75.2324 15.6781 0.25375 -75.5181 15.6599 0.248595 -75.8054 15.7623 0.149436 -76.1061 15.9596 -0.0397874 -76.4318 16.2318 -0.315712 -43.6502 7.80527 0.307407 -49.0092 6.3467 0.0374582 -54.2193 5.95197 -0.0779924 -59.3391 6.20073 -0.125616 -64.4091 6.82832 -0.156517 -69.4594 7.65846 -0.20151 -74.5144 8.56788 -0.279121 -79.5948 9.46645 -0.400051 -79.281 8.32737 -0.00488242 -78.9678 7.59681 0.250269 -78.6664 7.19806 0.371038 -78.3864 7.07339 0.361493 -78.1359 7.17906 0.224366 -77.9227 7.48187 -0.038806 -77.7538 7.956