<?xml version="1.0"?> 
<VTKFile type="StructuredGrid" version="0.1"> 
<StructuredGrid WholeExtent="0 14 0 14 0 29"> 
<Piece Extent="0 14 0 14 0 29"> 
<PointData>
<DataArray type="Float32" Name="hfield" format="ascii" NumberOfComponents="3"> 
22.1078 9.54969e-12 -3.86535e-12 20.8427 1.89316 -3.12639e-12 19.5293 3.73801 -2.30216e-12 18.1675 5.53454 -1.59162e-12 16.7575 7.28276 -8.52651e-13 15.2992 8.98267 -2.27374e-13 13.7925 10.6343 5.68434e-13 12.2376 12.2376 1.25056e-12 10.6343 13.7925 9.37916e-13 8.98267 15.2992 5.11591e-13 7.28276 16.7575 0 5.53454 18.1675 -2.27374e-13 3.73801 19.5293 -9.09495e-13 1.89316 20.8427 -9.09495e-13 5.85487e-12 22.1078 -1.36424e-12 20.8427 -1.89316 -2.16677e-12 19.4879 6.24878e-12 -1.73827e-12 18.0916 1.85175 -1.45187e-12 16.654 3.66209 -1.00916e-12 15.1749 5.43102 -5.096e-13 13.6545 7.15853 -1.00423e-14 12.0926 8.84464 3.75828e-13 10.4893 10.4893 6.48012e-13 8.84464 12.0926 3.11169e-13 7.15853 13.6545 -8.25176e-14 5.43102 15.1749 -1.91987e-13 3.66209 16.654 -6.9936e-13 1.85175 18.0916 -8.65673e-13 5.18341e-12 19.4879 -1.25936e-12 -1.89316 20.8427 -1.65305e-12 19.5293 -3.73801 -1.1503e-12 18.0916 -1.85175 -9.61209e-13 16.6195 5.14611e-12 -4.59474e-13 15.1128 1.81724 -3.69855e-13 13.5717 3.59997 -3.93922e-13 11.996 5.34819 -1.90615e-13 10.3858 7.06191 -1.57839e-13 8.74111 8.74111 4.54682e-14 7.06191 10.3858 -3.15579e-13 5.34819 11.996 -4.49252e-13 3.59997 13.5717 -6.11347e-13 1.81724 15.1128 -1.17135e-12 4.41958e-12 16.6195 -1.16291e-12 -1.85175 18.0916 -1.38185e-12 -3.73801 19.5293 -1.4871e-12 18.1675 -5.53454 8.8934e-13 16.654 -3.66209 5.61917e-13 15.1128 -1.81724 4.90289e-13 13.5441 4.96669e-12 3.54713e-13 11.9477 1.78963 -2.24482e-14 10.3237 3.55166 -2.00657e-13 8.67209 5.28608 -4.07288e-13 6.99289 6.99289 -6.13919e-13 5.28608 8.67209 -8.57061e-13 3.55166 10.3237 -1.1002e-12 1.78963 11.9477 -1.25808e-12 3.81561e-12 13.5441 -1.41596e-12 -1.81724 15.1128 -1.68752e-12 -3.66209 16.654 -1.73171e-12 -5.53454 18.1675 -1.88959e-12 16.7575 -7.28276 2.58792e-12 15.1749 -5.43102 2.05662e-12 13.5717 -3.59997 1.62479e-12 11.9477 -1.78963 8.80328e-13 10.303 5.1088e-12 4.05869e-13 8.63758 1.76893 -6.85911e-14 6.95148 3.51715 -6.56738e-13 5.24466 5.24466 -1.27331e-12 3.51715 6.95148 -1.39854e-12 1.76893 8.63758 -1.52378e-12 3.42482e-12 10.303 -1.56376e-12 -1.78963 11.9477 -1.77426e-12 -3.59997 13.5717 -1.87107e-12 -5.43102 15.1749 -1.96789e-12 -7.28276 16.7575 -2.17839e-12 15.2992 -8.98267 4.11598e-12 13.6545 -7.15853 3.38435e-12 11.996 -5.34819 2.4964e-12 10.3237 -3.55166 1.67595e-12 8.63758 -1.76893 7.06288e-13 6.93767 5.54223e-12 -1.35477e-13 5.22396 1.75512 -1.0483e-12 3.49644 3.49644 -1.87585e-12 1.75512 5.22396 -1.98266e-12 3.12639e-12 6.93767 -2.03263e-12 -1.76893 8.63758 -2.03996e-12 -3.55166 10.3237 -2.1894e-12 -5.34819 11.996 -2.16831e-12 -7.15853 13.6545 -2.31776e-12 -8.98267 15.2992 -2.29667e-12 13.7925 -10.6343 5.92825e-12 12.0926 -8.84464 4.4545e-12 10.3858 -7.06191 3.44971e-12 8.67209 -5.28608 2.28683e-12 6.95148 -3.51715 9.99601e-13 5.22396 -1.75512 -1.17097e-13 3.48954 5.68434e-12 -1.35459e-12 1.74822 1.74822 -2.54945e-12 3.32889e-12 3.48954 -2.53835e-12 -1.75512 5.22396 -2.56989e-12 -3.51715 6.95148 -2.53037e-12 -5.28608 8.67209 -2.57612e-12 -7.06191 10.3858 -2.49397e-12 -8.84464 12.0926 -2.46867e-12 -10.6343 13.7925 -2.55705e-12 12.2376 -12.2376 7.4563e-12 10.4893 -10.4893 5.98286e-12 8.74111 -8.74111 4.39574e-12 6.99289 -6.99289 2.9223e-12 5.24466 -5.24466 1.39202e-12 3.49644 -3.49644 -1.38267e-13 1.74822 -1.74822 -1.66855e-12 4.03588e-12 5.34328e-12 -3.19169e-12 -1.74822 1.74822 -3.12247e-12 -3.49644 3.49644 -3.05031e-12 -5.24466 5.24466 -2.99237e-12 -6.99289 6.99289 -2.906e-12 -8.74111 8.74111 -2.76279e-12 -10.4893 10.4893 -2.79011e-12 -12.2376 12.2376 -2.59006e-12 10.6343 -13.7925 4.17799e-12 8.84464 -12.0926 3.10862e-12 7.06191 -10.3858 2.224e-12 5.28608 -8.67209 1.12266e-12 3.51715 -6.95148 7.10543e-15 1.75512 -5.22396 -1.03739e-12 4.02878e-12 -3.48954 -2.089e-12 -1.74822 -1.74822 -3.1406e-12 -3.48954 5.00933e-12 -3.21165e-12 -5.22396 1.75512 -3.25429e-12 -6.95148 3.51715 -3.33955e-12 -8.67209 5.28608 -3.41061e-12 -10.3858 7.06191 -3.43903e-12 -12.0926 8.84464 -3.49587e-12 -13.7925 10.6343 -3.52429e-12 8.98267 -15.2992 9.66338e-13 7.15853 -13.6545 4.40536e-13 5.34819 -11.996 -2.27374e-13 3.55166 -10.3237 -7.38964e-13 1.76893 -8.63758 -1.36424e-12 3.55271e-12 -6.93767 -1.93268e-12 -1.75512 -5.22396 -2.47269e-12 -3.49644 -3.49644 -3.06954e-12 -5.22396 -1.75512 -3.31113e-12 -6.93767 5.17275e-12 -3.52429e-12 -8.63758 1.76893 -3.75167e-12 -10.3237 3.55166 -3.9222e-12 -11.996 5.34819 -4.14957e-12 -13.6545 7.15853 -4.37694e-12 -15.2992 8.98267 -4.54747e-12 7.28276 -16.7575 -2.16005e-12 5.43102 -15.1749 -2.47979e-12 3.59997 -13.5717 -2.6148e-12 1.78963 -11.9477 -2.64322e-12 3.23297e-12 -10.303 -2.67164e-12 -1.76893 -8.63758 -2.87059e-12 -3.51715 -6.95148 -2.95586e-12 -5.24466 -5.24466 -3.0127e-12 -6.95148 -3.51715 -3.39639e-12 -8.63758 -1.76893 -3.75167e-12 -10.303 5.71276e-12 -4.09273e-12 -11.9477 1.78963 -4.49063e-12 -13.5717 3.59997 -4.88853e-12 -15.1749 5.43102 -5.11591e-12 -16.7575 7.28276 -5.45697e-12 5.53454 -18.1675 -5.57066e-12 3.66209 -16.654 -5.17275e-12 1.81724 -15.1128 -4.68958e-12 3.77298e-12 -13.5441 -4.46221e-12 -1.78963 -11.9477 -4.20641e-12 -3.55166 -10.3237 -3.63798e-12 -5.28608 -8.67209 -3.29692e-12 -6.99289 -6.99289 -2.95586e-12 -8.67209 -5.28608 -3.41061e-12 -10.3237 -3.55166 -3.86535e-12 -11.9477 -1.78963 -4.43379e-12 -13.5441 6.13909e-12 -4.88853e-12 -15.1128 1.81724 -5.45697e-12 -16.654 3.66209 -5.91172e-12 -18.1675 5.53454 -6.36646e-12 3.73801 -19.5293 -8.6402e-12 1.85175 -18.0916 -8.10019e-12 5.69855e-12 -16.6195 -7.19069e-12 -1.81724 -15.1128 -6.25278e-12 -3.59997 -13.5717 -5.45697e-12 -5.34819 -11.996 -4.60432e-12 -7.06191 -10.3858 -3.75167e-12 -8.74111 -8.74111 -2.95586e-12 -10.3858 -7.06191 -3.60956e-12 -11.996 -5.34819 -4.20641e-12 -13.5717 -3.59997 -4.66116e-12 -15.1128 -1.81724 -5.57066e-12 -16.6195 6.70752e-12 -6.0254e-12 -18.0916 1.85175 -6.36646e-12 -19.5293 3.73801 -7.27596e-12 1.89316 -20.8427 -1.18234e-11 1.06439e-11 -19.4879 -1.08713e-11 -1.85175 -18.0916 -9.32232e-12 -3.66209 -16.654 -8.01492e-12 -5.43102 -15.1749 -6.82121e-12 -7.15853 -13.6545 -5.57066e-12 -8.84464 -12.0926 -4.3201e-12 -10.4893 -10.4893 -2.84217e-12 -12.0926 -8.84464 -3.72324e-12 -13.6545 -7.15853 -4.43379e-12 -15.1749 -5.43102 -5.22959e-12 -16.654 -3.66209 -5.91172e-12 -18.0916 -1.85175 -6.59384e-12 -19.4879 6.19593e-12 -7.50333e-12 -20.8427 1.89316 -8.18545e-12 1.7792e-11 -22.1078 -1.5234e-11 -1.89316 -20.8427 -1.34435e-11 -3.73801 -19.5293 -1.20792e-11 -5.53454 -18.1675 -1.02318e-11 -7.28276 -16.7575 -8.12861e-12 -8.98267 -15.2992 -6.36646e-12 -10.6343 -13.7925 -4.54747e-12 -12.2376 -12.2376 -2.72848e-12 -13.7925 -10.6343 -3.72324e-12 -15.2992 -8.98267 -4.66116e-12 -16.7575 -7.28276 -5.34328e-12 -18.1675 -5.53454 -6.48015e-12 -19.5293 -3.73801 -7.27596e-12 -20.8427 -1.89316 -7.95808e-12 -22.1078 4.83169e-12 -9.54969e-12 -87.9116 7.7307e-12 4.09273e-12 -81.1304 -5.77765 3.5385e-12 -74.4265 -11.6325 3.46745e-12 -67.7997 -17.5645 2.98428e-12 -61.2502 -23.5738 2.6148e-12 -54.7778 -29.6602 2.07478e-12 -48.3826 -35.8238 1.76215e-12 -42.0646 -42.0646 1.53477e-12 -35.8238 -48.3826 1.10845e-12 -29.6602 -54.7778 5.96856e-13 -23.5738 -61.2502 2.27374e-13 -17.5645 -67.7997 5.68434e-14 -11.6325 -74.4265 -5.68434e-13 -5.77765 -81.1304 -9.09495e-13 -3.41061e-12 -87.9116 -1.25056e-12 -81.1304 5.77765 3.2169e-12 -74.4927 6.93845e-12 3.13424e-12 -67.921 -5.84382 2.6821e-12 -61.4156 -11.7538 2.4076e-12 -54.9763 -17.7299 1.97677e-12 -48.6031 -23.7723 1.67385e-12 -42.2962 -29.8807 1.17197e-12 -36.0554 -36.0554 9.54306e-13 -29.8807 -42.2962 6.63118e-13 -23.7723 -48.6031 2.86664e-13 -17.7299 -54.9763 -4.52355e-15 -11.7538 -61.4156 -3.24133e-13 -5.84382 -67.921 -7.29008e-13 -2.2311e-12 -74.4927 -1.13388e-12 5.77765 -81.1304 -1.48191e-12 -74.4265 11.6325 2.56845e-12 -67.921 5.84382 2.20062e-12 -61.4707 6.75726e-12 2.0886e-12 -55.0755 -5.89895 1.67459e-12 -48.7355 -11.853 1.33875e-12 -42.4506 -17.8623 1.04553e-12 -36.2208 -23.9266 7.23896e-13 -30.0461 -30.0461 4.59104e-13 -23.9266 -36.2208 1.5384e-13 -17.8623 -42.4506 -1.51425e-13 -11.853 -48.7355 -4.35373e-13 -5.89895 -55.0755 -8.18797e-13 -5.96856e-13 -61.4707 -1.11696e-12 5.84382 -67.921 -1.5288e-12 11.6325 -74.4265 -1.71327e-12 -67.7997 17.5645 2.09052e-12 -61.4156 11.7538 1.81413e-12 -55.0755 5.89895 1.51641e-12 -48.7796 5.86908e-12 1.22581e-12 -42.5277 -5.94306 9.28094e-13 -36.32 -11.9302 5.02484e-13 -30.1564 -17.9615 3.61091e-13 -24.0369 -24.0369 -3.60973e-14 -17.9615 -30.1564 -2.55962e-13 -11.9302 -36.32 -6.17935e-13 -5.94306 -42.5277 -9.79909e-13 5.11591e-13 -48.7796 -1.2282e-12 5.89895 -55.0755 -1.64701e-12 11.7538 -61.4156 -1.92372e-12 17.5645 -67.7997 -2.17201e-12 -61.2502 23.5738 1.32838e-12 -54.9763 17.7299 1.15052e-12 -48.7355 11.853 8.73174e-13 -42.5277 5.94306 5.42541e-13 -36.3531 5.03064e-12 3.32701e-13 -30.2116 -5.97615 5.8912e-14 -24.1031 -11.9854 -3.14353e-13 -18.0277 -18.0277 -4.74455e-13 -11.9854 -24.1031 -7.43924e-13 -5.97615 -30.2116 -1.04181e-12 1.50635e-12 -36.3531 -1.3397e-12 5.94306 -42.5277 -1.63759e-12 11.853 -48.7355 -1.97812e-12 17.7299 -54.9763 -2.2618e-12 23.5738 -61.2502 -2.46021e-12 -54.7778 29.6602 7.65193e-13 -48.6031 23.7723 4.63813e-13 -42.4506 17.8623 3.00989e-13 -36.32 11.9302 1.00861e-13 -30.2116 5.97615 -2.27165e-13 -24.1251 4.37694e-12 -4.69925e-13 -18.0608 -5.9982 -7.0558e-13 -12.0185 -12.0185 -9.55446e-13 -5.9982 -18.0608 -1.2461e-12 2.41585e-12 -24.1251 -1.52254e-12 5.97615 -30.2116 -1.75634e-12 11.9302 -36.32 -2.13226e-12 17.8623 -42.4506 -2.26659e-12 23.7723 -48.6031 -2.62829e-12 29.6602 -54.7778 -2.91894e-12 -48.3826 35.8238 8.83177e-14 -42.2962 29.8807 -3.37079e-14 -36.2208 23.9266 -2.3567e-13 -30.1564 17.9615 -6.39248e-13 -24.1031 11.9854 -7.62162e-13 -18.0608 5.9982 -1.03429e-12 -12.0295 4.09273e-12 -1.21049e-12 -6.00923 -6.00923 -1.43644e-12 2.79954e-12 -12.0295 -1.69498e-12 5.9982 -18.0608 -1.92865e-12 11.9854 -24.1031 -2.23693e-12 17.9615 -30.1564 -2.39244e-12 23.9266 -36.2208 -2.78243e-12 29.8807 -42.2962 -3.06584e-12 35.8238 -48.3826 -3.2782e-12 -42.0646 42.0646 -5.90863e-13 -36.0554 36.0554 -7.89447e-13 -30.0461 30.0461 -9.59609e-13 -24.0369 24.0369 -1.12977e-12 -18.0277 18.0277 -1.32836e-12 -12.0185 12.0185 -1.52694e-12 -6.00923 6.00923 -1.71842e-12 2.84217e-12 4.09273e-12 -1.9129e-12 6.00923 -6.00923 -2.15005e-12 12.0185 -12.0185 -2.36286e-12 18.0277 -18.0277 -2.61119e-12 24.0369 -24.0369 -2.85952e-12 30.0461 -30.0461 -3.07943e-12 36.0554 -36.0554 -3.44145e-12 42.0646 -42.0646 -3.5761e-12 -35.8238 48.3826 -2.70006e-13 -29.8807 42.2962 -7.25642e-13 -23.9266 36.2208 -7.95808e-13 -17.9615 30.1564 -1.20792e-12 -11.9854 24.1031 -1.53833e-12 -5.9982 18.0608 -1.76215e-12 2.97007e-12 12.0295 -2.06057e-12 6.00923 6.00923 -2.36611e-12 12.0295 4.94538e-12 -2.60414e-12 18.0608 -5.9982 -2.85638e-12 24.1031 -11.9854 -3.04823e-12 30.1564 -17.9615 -3.28981e-12 36.2208 -23.9266 -3.46745e-12 42.2962 -29.8807 -3.70903e-12 48.3826 -35.8238 -3.93641e-12 -29.6602 54.7778 0 -23.7723 48.6031 -4.20997e-13 -17.8623 42.4506 -7.92255e-13 -11.9302 36.32 -1.19371e-12 -5.97615 30.2116 -1.62004e-12 3.29692e-12 24.1251 -1.99663e-12 5.9982 18.0608 -2.43006e-12 12.0185 12.0185 -2.81375e-12 18.0608 5.9982 -3.03046e-12 24.1251 5.40012e-12 -3.28981e-12 30.2116 -5.97615 -3.52429e-12 36.32 -11.9302 -3.75167e-12 42.4506 -17.8623 -4.03588e-12 48.6031 -23.7723 -4.26326e-12 54.7778 -29.6602 -4.46221e-12 -23.5738 61.2502 3.41061e-13 -17.7299 54.9763 -1.52767e-13 -11.853 48.7355 -8.31335e-13 -5.94306 42.5277 -1.19371e-12 3.46745e-12 36.3531 -1.74794e-12 5.97615 30.2116 -2.2311e-12 11.9854 24.1031 -2.68585e-12 18.0277 18.0277 -3.2685e-12 24.1031 11.9854 -3.55982e-12 30.2116 5.97615 -3.73745e-12 36.3531 5.96856e-12 -3.99325e-12 42.5277 -5.94306 -4.26326e-12 48.7355 -11.853 -4.43379e-12 54.9763 -17.7299 -4.5759e-12 61.2502 -23.5738 -4.94538e-12 -17.5645 67.7997 6.82121e-13 -11.7538 61.4156 0 -5.89895 55.0755 -5.7554e-13 3.83693e-12 48.7796 -1.19371e-12 5.94306 42.5277 -1.90425e-12 11.9302 36.32 -2.38742e-12 17.9615 30.1564 -3.15481e-12 24.0369 24.0369 -3.72324e-12 30.1564 17.9615 -4.01457e-12 36.32 11.9302 -4.17799e-12 42.5277 5.94306 -4.43379e-12 48.7796 6.48015e-12 -4.63274e-12 55.0755 -5.89895 -4.80327e-12 61.4156 -11.7538 -5.22959e-12 67.7997 -17.5645 -5.34328e-12 -11.6325 74.4265 1.02318e-12 -5.84382 67.921 2.13163e-13 3.29692e-12 61.4707 -6.75016e-13 5.89895 55.0755 -1.19371e-12 11.853 48.7355 -1.98952e-12 17.8623 42.4506 -2.72848e-12 23.9266 36.2208 -3.43903e-12 30.0461 30.0461 -4.12115e-12 36.2208 23.9266 -4.40536e-12 42.4506 17.8623 -4.67537e-12 48.7355 11.853 -4.94538e-12 55.0755 5.89895 -5.22959e-12 61.4707 7.50333e-12 -5.34328e-12 67.921 -5.84382 -5.57066e-12 74.4265 -11.6325 -6.08225e-12 -5.77765 81.1304 1.25056e-12 1.9611e-12 74.4927 5.47118e-13 5.84382 67.921 -5.25802e-13 11.7538 61.4156 -1.19371e-12 17.7299 54.9763 -1.98952e-12 23.7723 48.6031 -2.92744e-12 29.8807 42.2962 -3.72324e-12 36.0554 36.0554 -4.60432e-12 42.2962 29.8807 -5.01643e-12 48.6031 23.7723 -5.11591e-12 54.9763 17.7299 -5.48539e-12 61.4156 11.7538 -5.74119e-12 67.921 5.84382 -5.74119e-12 74.4927 8.41283e-12 -6.13909e-12 81.1304 -5.77765 -6.36646e-12 2.27374e-13 87.9116 1.47793e-12 5.77765 81.1304 8.17124e-13 11.6325 74.4265 -4.9738e-13 17.5645 67.7997 -1.36424e-12 23.5738 61.2502 -2.30216e-12 29.6602 54.7778 -3.06954e-12 35.8238 48.3826 -4.09273e-12 42.0646 42.0646 -5.05906e-12 48.3826 35.8238 -5.38591e-12 54.7778 29.6602 -5.57066e-12 61.2502 23.5738 -5.74119e-12 67.7997 17.5645 -6.08225e-12 74.4265 11.6325 -6.30962e-12 81.1304 5.77765 -6.59384e-12 87.9116 1.02318e-11 -6.9349e-12 -173.34 2.72848e-12 3.75167e-12 -160.614 -12.0375 3.2685e-12 -147.942 -24.1279 2.87059e-12 -135.322 -36.2712 2.359e-12 -122.756 -48.4675 1.87583e-12 -110.242 -60.7166 1.19371e-12 -97.7814 -73.0186 7.38964e-13 -85.3736 -85.3736 3.41061e-13 -73.0186 -97.7814 5.40012e-13 -60.7166 -110.242 7.38964e-13 -48.4675 -122.756 9.09495e-13 -36.2712 -135.322 1.13687e-12 -24.1279 -147.942 1.25056e-12 -12.0375 -160.614 1.36424e-12 -3.18323e-12 -173.34 1.7053e-12 -160.614 12.0375 3.19024e-12 -147.987 2.51532e-12 2.77114e-12 -135.406 -12.0829 2.40889e-12 -122.869 -24.2111 1.90452e-12 -110.378 -36.3846 1.59911e-12 -97.9326 -48.6035 1.20844e-12 -85.5323 -60.8677 6.75649e-13 -73.1773 -73.1773 2.56551e-13 -60.8677 -85.5323 1.71163e-13 -48.6035 -97.9326 1.14197e-13 -36.3846 -110.378 3.87665e-16 -24.2111 -122.869 -2.81565e-14 -12.0829 -135.406 -1.70388e-13 -1.16529e-12 -147.987 -3.12619e-13 12.0375 -160.614 -3.41163e-13 -147.942 24.1279 2.62882e-12 -135.406 12.0829 2.36616e-12 -122.907 2.68585e-12 1.86192e-12 -110.446 -12.1206 1.62058e-12 -98.0233 -24.2791 1.29397e-12 -85.6381 -36.4753 9.10519e-13 -73.2907 -48.7093 4.98647e-13 -60.9811 -60.9811 1.72041e-13 -48.7093 -73.2907 -1.26632e-13 -36.4753 -85.6381 -5.38992e-13 -24.2791 -98.0233 -9.08719e-13 -12.1206 -110.446 -1.25002e-12 3.41061e-13 -122.907 -1.59133e-12 12.0829 -135.406 -2.10317e-12 24.1279 -147.942 -2.27394e-12 -135.322 36.2712 2.0674e-12 -122.869 24.2111 1.7267e-12 -110.446 12.1206 1.5139e-12 -98.0535 3.09797e-12 1.19452e-12 -85.691 -12.1509 9.31984e-13 -73.3587 -24.332 6.69447e-13 -61.0567 -36.5433 4.63754e-13 -48.7849 -48.7849 1.44374e-13 -36.5433 -61.0567 -5.09693e-13 -24.332 -73.3587 -1.13534e-12 -12.1509 -85.691 -1.76098e-12 6.25278e-13 -98.0535 -2.41505e-12 12.1206 -110.446 -3.12596e-12 24.2111 -122.869 -3.78003e-12 36.2712 -135.322 -4.20672e-12 -122.756 48.4675 1.44913e-12 -110.378 36.3846 1.28264e-12 -98.0233 24.2791 1.0522e-12 -85.691 12.1509 8.6794e-13 -73.3814 3.29692e-12 6.83685e-13 -61.0945 -12.1735 4.56797e-13 -48.8302 -24.3698 3.15174e-13 -36.5887 -36.5887 1.16708e-13 -24.3698 -48.8302 -8.21699e-13 -12.1735 -61.0945 -1.76011e-12 8.52651e-13 -73.3814 -2.69851e-12 12.1509 -85.691 -3.6085e-12 24.2791 -98.0233 -4.49006e-12 36.3846 -110.378 -5.57057e-12 48.4675 -122.756 -6.42372e-12 -110.242 60.7166 8.30862e-13 -97.9326 48.6035 7.03571e-13 -85.6381 36.4753 6.33124e-13 -73.3587 24.332 5.34255e-13 -61.0945 12.1735 3.78543e-13 -48.8454 3.52429e-12 2.86779e-13 -36.6113 -12.1887 1.95015e-13 -24.3924 -24.3924 8.9041e-14 -12.1887 -36.6113 -1.16213e-12 1.13687e-12 -48.8454 -2.35645e-12 12.1735 -61.0945 -3.59341e-12 24.332 -73.3587 -4.85879e-12 36.4753 -85.6381 -6.02469e-12 48.6035 -97.9326 -7.19059e-12 60.7166 -110.242 -8.47018e-12 -97.7814 73.0186 2.9786e-13 -85.5323 60.8677 2.23982e-13 -73.2907 48.7093 2.60237e-13 -61.0567 36.5433 1.25962e-13 -48.8302 24.3698 1.30244e-13 -36.6113 12.1887 7.41285e-14 -24.4 3.63798e-12 5.35406e-14 -12.1962 -12.1962 1.87419e-14 1.84741e-12 -24.4 -1.47413e-12 12.1887 -36.6113 -3.00964e-12 24.3698 -48.8302 -4.4812e-12 36.5433 -61.0567 -5.95276e-12 48.7093 -73.2907 -7.60195e-12 60.8677 -85.5323 -9.02377e-12 73.0186 -97.7814 -1.05735e-11 -85.3736 85.3736 -2.93555e-13 -73.1773 73.1773 -2.72651e-13 -60.9811 60.9811 -2.51748e-13 -48.7849 48.7849 -1.74001e-13 -36.5887 36.5887 -1.24675e-13 -24.3924 24.3924 -1.03772e-13 -12.1962 12.1962 -6.86573e-14 2.95586e-12 2.95586e-12 -2.84574e-14 12.1962 -12.1962 -1.80598e-12 24.3924 -24.3924 -3.61181e-12 36.5887 -36.5887 -5.40342e-12 48.7849 -48.7849 -7.22346e-12 60.9811 -60.9811 -8.95823e-12 73.1773 -73.1773 -1.07499e-11 85.3736 -85.3736 -1.25983e-11 -73.0186 97.7814 -3.97904e-13 -60.8677 85.5323 -5.48894e-13 -48.7093 73.2907 -4.44089e-13 -36.5433 61.0567 -4.86722e-13 -24.3698 48.8302 -4.76064e-13 -12.1887 36.6113 -5.25802e-13 3.09797e-12 24.4 -5.40012e-13 12.1962 12.1962 -5.54223e-13 24.4 2.6148e-12 -2.34834e-12 36.6113 -12.1887 -4.12115e-12 48.8302 -24.3698 -5.94724e-12 61.0567 -36.5433 -7.75913e-12 73.2907 -48.7093 -9.46443e-12 85.5323 -60.8677 -1.12976e-11 97.7814 -73.0186 -1.31308e-11 -60.7166 110.242 -5.11591e-13 -48.6035 97.9326 -6.50147e-13 -36.4753 85.6381 -7.24754e-13 -24.332 73.3587 -7.95808e-13 -12.1735 61.0945 -8.66862e-13 2.6148e-12 48.8454 -9.37916e-13 12.1887 36.6113 -9.66338e-13 24.3924 24.3924 -1.0516e-12 36.6113 12.1887 -2.91323e-12 48.8454 2.95586e-12 -4.70379e-12 61.0945 -12.1735 -6.45173e-12 73.3587 -24.332 -8.35598e-12 85.6381 -36.4753 -1.01181e-11 97.9326 -48.6035 -1.18803e-11 110.242 -60.7166 -1.3813e-11 -48.4675 122.756 -6.82121e-13 -36.3846 110.378 -8.13571e-13 -24.2791 98.0233 -1.00897e-12 -12.1509 85.691 -1.0516e-12 2.21689e-12 73.3814 -1.19371e-12 12.1735 61.0945 -1.3074e-12 24.3698 48.8302 -1.44951e-12 36.5887 36.5887 -1.59162e-12 48.8302 24.3698 -3.38929e-12 61.0945 12.1735 -5.28644e-12 73.3814 3.75167e-12 -7.07701e-12 85.691 -12.1509 -8.86757e-12 98.0233 -24.2791 -1.08002e-11 110.378 -36.3846 -1.25056e-11 122.756 -48.4675 -1.44382e-11 -36.2712 135.322 -9.09495e-13 -24.2111 122.869 -1.15108e-12 -12.1206 110.446 -1.1795e-12 1.76215e-12 98.0535 -1.47793e-12 12.1509 85.691 -1.56319e-12 24.332 73.3587 -1.7053e-12 36.5433 61.0567 -1.93268e-12 48.7849 48.7849 -2.04636e-12 61.0567 36.5433 -3.93641e-12 73.3587 24.332 -5.76961e-12 85.691 12.1509 -7.61702e-12 98.0535 5.22959e-12 -9.43601e-12 110.446 -12.1206 -1.13118e-11 122.869 -24.2111 -1.31308e-11 135.322 -36.2712 -1.4893e-11 -24.1279 147.942 -1.02318e-12 -12.0829 135.406 -1.14397e-12 1.3074e-12 122.907 -1.50635e-12 12.1206 110.446 -1.59162e-12 24.2791 98.0233 -1.87583e-12 36.4753 85.6381 -2.13163e-12 48.7093 73.2907 -2.33058e-12 60.9811 60.9811 -2.6148e-12 73.2907 48.7093 -4.59011e-12 85.6381 36.4753 -6.30962e-12 98.0233 24.2791 -8.07177e-12 110.446 12.1206 -1.00613e-11 122.907 6.82121e-12 -1.18234e-11 135.406 -12.0829 -1.35287e-11 147.942 -24.1279 -1.54614e-11 -12.0375 160.614 -1.13687e-12 9.37916e-13 147.987 -1.28608e-12 12.0829 135.406 -1.8332e-12 24.2111 122.869 -1.90425e-12 36.3846 110.378 -2.27374e-12 48.6035 97.9326 -2.55795e-12 60.8677 85.5323 -2.84217e-12 73.1773 73.1773 -3.12639e-12 85.5323 60.8677 -4.95959e-12 97.9326 48.6035 -6.87805e-12 110.378 36.3846 -8.81073e-12 122.869 24.2111 -1.06866e-11 135.406 12.0829 -1.25056e-11 147.987 8.6402e-12 -1.42109e-11 160.614 -12.0375 -1.61435e-11 1.81899e-12 173.34 -1.25056e-12 12.0375 160.614 -1.56319e-12 24.1279 147.942 -2.04636e-12 36.2712 135.322 -2.44427e-12 48.4675 122.756 -2.6148e-12 60.7166 110.242 -2.95586e-12 73.0186 97.7814 -3.29692e-12 85.3736 85.3736 -3.63798e-12 97.7814 73.0186 -5.59908e-12 110.242 60.7166 -7.3328e-12 122.756 48.4675 -9.26548e-12 135.322 36.2712 -1.11413e-11 147.942 24.1279 -1.3074e-11 160.614 12.0375 -1.47793e-11 173.34 1.00044e-11 -1.68257e-11 -185.608 -9.09495e-13 2.95763e-12 -172.213 -13.1207 2.59159e-12 -158.84 -26.2624 2.25486e-12 -145.487 -39.4253 1.88649e-12 -132.156 -52.6092 1.36779e-12 -118.845 -65.8142 1.00631e-12 -105.556 -79.0403 6.17284e-13 -92.2875 -92.2875 1.97176e-13 -79.0403 -105.556 3.27516e-13 -65.8142 -118.845 4.71623e-13 -52.6092 -132.156 6.30163e-13 -39.4253 -145.487 8.02913e-13 -26.2624 -158.84 9.47686e-13 -13.1207 -172.213 1.06226e-12 1.13687e-13 -185.608 1.37845e-12 -172.213 13.1207 2.67789e-12 -158.858 -5.61329e-13 2.30289e-12 -145.52 -13.1388 1.98008e-12 -132.201 -26.2956 1.57743e-12 -118.899 -39.4705 1.09974e-12 -105.616 -52.6634 7.86804e-13 -92.3508 -65.8745 4.30791e-13 -79.1036 -79.1036 4.68008e-14 -65.8745 -92.3508 2.6258e-17 -52.6634 -105.616 -2.5432e-14 -39.4705 -118.899 -1.59636e-15 -26.2956 -132.201 -5.59204e-14 -13.1388 -145.52 -8.13787e-14 -3.83693e-13 -158.858 -7.84152e-14 13.1207 -172.213 -1.03873e-13 -158.84 26.2624 2.14502e-12 -145.52 13.1388 1.86409e-12 -132.216 1.7053e-13 1.59515e-12 -118.926 -13.1538 1.33765e-12 -105.652 -26.3227 8.57887e-13 -92.3929 -39.5066 6.23701e-13 -79.1488 -52.7056 2.45187e-13 -65.9196 -65.9196 -6.27178e-14 -52.7056 -79.1488 -3.25465e-13 -39.5066 -92.3929 -4.67198e-13 -26.3227 -105.652 -6.32467e-13 -13.1538 -118.926 -8.86332e-13 -3.41061e-13 -132.216 -1.07936e-12 13.1388 -145.52 -1.21909e-12 26.2624 -158.84 -1.47074e-12 -145.487 39.4253 1.86616e-12 -132.201 26.2956 1.54896e-12 -118.926 13.1538 1.16771e-12 -105.664 4.9738e-13 9.40888e-13 -92.414 -13.1659 6.40902e-13 -79.1759 -26.3438 3.60234e-13 -65.9498 -39.5337 8.75595e-14 -52.7357 -52.7357 -2.13093e-13 -39.5337 -65.9498 -5.81789e-13 -26.3438 -79.1759 -9.64474e-13 -13.1659 -92.414 -1.35837e-12 3.83693e-13 -105.664 -1.70165e-12 13.1538 -118.926 -2.08044e-12 26.2956 -132.201 -2.4024e-12 39.4253 -145.487 -2.86691e-12 -132.156 52.6092 1.4745e-12 -118.899 39.4705 1.33926e-12 -105.652 26.3227 1.00095e-12 -92.414 13.1659 7.02885e-13 -79.1849 7.53175e-13 4.50341e-13 -65.9648 -13.1749 1.70042e-13 -52.7538 -26.3588 -7.62847e-14 -39.5518 -39.5518 -3.3549e-13 -26.3588 -52.7538 -9.0939e-13 -13.1749 -65.9648 -1.44399e-12 5.11591e-13 -79.1849 -2.02521e-12 13.1659 -92.414 -2.53827e-12 26.3227 -105.652 -3.13793e-12 39.4705 -118.899 -3.71583e-12 52.6092 -132.156 -4.23555e-12 -118.845 65.8142 1.02556e-12 -105.616 52.6634 7.81215e-13 -92.3929 39.5066 6.01982e-13 -79.1759 26.3438 4.21472e-13 -65.9648 13.1749 1.71184e-13 -52.7598 1.22213e-12 -4.34653e-14 -39.5608 -13.1809 -2.47234e-13 -26.3679 -26.3679 -4.65437e-13 -13.1809 -39.5608 -1.19147e-12 1.12266e-12 -52.7598 -1.93505e-12 13.1749 -65.9648 -2.66808e-12 26.3438 -79.1759 -3.42597e-12 39.5066 -92.3929 -4.15168e-12 52.6634 -105.616 -4.79966e-12 65.8142 -118.845 -5.6033e-12 -105.556 79.0403 7.90005e-13 -92.3508 65.8745 4.91542e-13 -79.1488 52.7056 3.29192e-13 -65.9498 39.5337 8.97098e-14 -52.7538 26.3588 -5.47377e-14 -39.5608 13.1809 -2.42095e-13 -26.3709 1.36424e-12 -4.22181e-13 -13.1839 -13.1839 -5.91608e-13 1.53477e-12 -26.3709 -1.51477e-12 13.1809 -39.5608 -2.46108e-12 26.3588 -52.7538 -3.34424e-12 39.5337 -65.9498 -4.24884e-12 52.7056 -79.1488 -5.20106e-12 65.8745 -92.3508 -6.11464e-12 79.0403 -105.556 -7.04211e-12 -92.2875 92.2875 3.38328e-13 -79.1036 79.1036 1.60488e-13 -65.9196 65.9196 -1.60187e-14 -52.7357 52.7357 -1.50337e-13 -39.5518 39.5518 -2.85544e-13 -26.3679 26.3679 -4.48062e-13 -13.1839 13.1839 -5.75164e-13 1.53477e-12 1.87583e-12 -7.23094e-13 13.1839 -13.1839 -1.81041e-12 26.3679 -26.3679 -2.91461e-12 39.5518 -39.5518 -4.05078e-12 52.7357 -52.7357 -5.1008e-12 65.9196 -65.9196 -6.20855e-12 79.1036 -79.1036 -7.30254e-12 92.2875 -92.2875 -8.40985e-12 -79.0403 105.556 2.44693e-13 -65.8745 92.3508 6.31994e-14 -52.7056 79.1488 -1.72529e-13 -39.5337 65.9498 -3.48499e-13 -26.3588 52.7538 -5.21139e-13 -13.1809 39.5608 -7.27751e-13 1.1724e-12 26.3709 -9.16489e-13 13.1839 13.1839 -1.11589e-12 26.3709 1.91136e-12 -2.19968e-12 39.5608 -13.1809 -3.25506e-12 52.7538 -26.3588 -4.36529e-12 65.9498 -39.5337 -5.41889e-12 79.1488 -52.7056 -6.42952e-12 92.3508 -65.8745 -7.57905e-12 105.556 -79.0403 -8.67906e-12 -65.8142 118.845 2.78888e-13 -52.6634 105.616 -9.28146e-14 -39.5066 92.3929 -3.0681e-13 -26.3438 79.1759 -5.74096e-13 -13.1749 65.9648 -8.2867e-13 1.03739e-12 52.7598 -1.04805e-12 13.1809 39.5608 -1.26366e-12 26.3679 26.3679 -1.529e-12 39.5608 13.1809 -2.56789e-12 52.7598 1.36424e-12 -3.65308e-12 65.9648 -13.1749 -4.67471e-12 79.1759 -26.3438 -5.77005e-12 92.3929 -39.5066 -6.86984e-12 105.616 -52.6634 -7.83418e-12 118.845 -65.8142 -8.9484e-12 -52.6092 132.156 1.63425e-13 -39.4705 118.899 -2.06613e-13 -26.3227 105.652 -4.59299e-13 -13.1659 92.414 -7.33857e-13 9.80549e-13 79.1849 -1.06182e-12 13.1749 65.9648 -1.30851e-12 26.3588 52.7538 -1.62492e-12 39.5518 39.5518 -1.90647e-12 52.7538 26.3588 -2.93532e-12 65.9648 13.1749 -4.027e-12 79.1849 3.41061e-13 -5.03331e-12 92.414 -13.1659 -6.08935e-12 105.652 -26.3227 -7.16716e-12 118.899 -39.4705 -8.12994e-12 132.156 -52.6092 -9.22284e-12 -39.4253 145.487 4.88498e-14 -26.2956 132.201 -2.07168e-13 -13.1538 118.926 -5.96301e-13 1.19371e-12 105.664 -9.36584e-13 13.1659 92.414 -1.24256e-12 26.3438 79.1759 -1.58984e-12 39.5337 65.9498 -1.95088e-12 52.7357 52.7357 -2.32703e-12 65.9498 39.5337 -3.33022e-12 79.1759 26.3438 -4.37539e-12 92.414 13.1659 -5.38769e-12 105.664 -1.98952e-12 -6.40954e-12 118.926 -13.1538 -7.42917e-12 132.201 -26.2956 -8.45013e-12 145.487 -39.4253 -9.52749e-12 -26.2624 158.84 1.03917e-13 -13.1388 145.52 -3.37841e-13 1.26477e-12 132.216 -7.72271e-13 13.1538 118.926 -1.10845e-12 26.3227 105.652 -1.55032e-12 39.5066 92.3929 -1.97753e-12 52.7056 79.1488 -2.2915e-12 65.9196 65.9196 -2.74758e-12 79.1488 52.7056 -3.81739e-12 92.3929 39.5066 -4.73777e-12 105.652 26.3227 -5.65148e-12 118.926 13.1538 -6.67066e-12 132.216 -4.43379e-12 -7.7609e-12 145.52 -13.1388 -8.69704e-12 158.84 -26.2624 -9.71667e-12 -13.1207 172.213 -9.41469e-14 1.0445e-12 158.858 -4.29212e-13 13.1388 145.52 -9.77218e-13 26.2956 132.201 -1.39311e-12 39.4705 118.899 -1.75815e-12 52.6634 105.616 -2.28084e-12 65.8745 92.3508 -2.73115e-12 79.1036 79.1036 -3.09708e-12 92.3508 65.8745 -4.06652e-12 105.616 52.6634 -5.07949e-12 118.899 39.4705 -6.04228e-12 132.201 26.2956 -7.06102e-12 145.52 13.1388 -7.9261e-12 158.858 -7.95808e-12 -8.9857e-12 172.213 -13.1207 -1.00204e-11 1.25056e-12 185.608 -1.52767e-13 13.1207 172.213 -3.77698e-13 26.2624 158.84 -1.14619e-12 39.4253 145.487 -1.5774e-12 52.6092 132.156 -1.98019e-12 65.8142 118.845 -2.49756e-12 79.0403 105.556 -3.02958e-12 92.2875 92.2875 -3.50298e-12 105.556 79.0403 -4.45066e-12 118.845 65.8142 -5.42766e-12 132.156 52.6092 -6.36113e-12 145.487 39.4253 -7.52376e-12 158.84 26.2624 -8.31513e-12 172.213 13.1207 -9.13492e-12 185.608 -1.20508e-11 -1.0326e-11 -197.409 -6.82121e-13 2.37321e-12 -183.339 -14.1309 2.23066e-12 -169.264 -28.2572 1.73817e-12 -155.184 -42.3788 1.48148e-12 -141.1 -56.4957 1.08358e-12 -127.011 -70.608 7.74492e-13 -112.917 -84.7157 4.61853e-13 -98.8187 -98.8187 1.27898e-13 -84.7157 -112.917 2.0961e-13 -70.608 -127.011 3.09086e-13 -56.4957 -141.1 3.97904e-13 -42.3788 -155.184 4.583e-13 -28.2572 -169.264 5.82645e-13 -14.1309 -183.339 7.81597e-13 4.54747e-13 -197.409 6.96332e-13 -183.339 14.1309 2.32267e-12 -169.26 -6.16396e-13 1.73765e-12 -155.177 -14.1269 1.6882e-12 -141.09 -28.2499 1.32833e-12 -126.999 -42.3688 8.84972e-13 -112.904 -56.4838 6.40565e-13 -98.8047 -70.5947 2.52274e-13 -84.7017 -84.7017 -4.89758e-14 -70.5947 -98.8047 -9.94629e-14 -56.4838 -112.904 -4.28874e-15 -42.3688 -126.999 -6.98749e-14 -28.2499 -141.09 -1.58554e-13 -14.1269 -155.177 -5.71623e-14 -1.42109e-13 -169.26 -1.47617e-13 14.1309 -183.339 -6.75423e-14 -169.264 28.2572 1.86712e-12 -155.177 14.1269 1.49733e-12 -141.086 2.4727e-13 1.35846e-12 -126.993 -14.1236 9.98431e-13 -112.896 -28.2439 6.13535e-13 -98.7954 -42.3608 3.37885e-13 -84.6917 -56.4745 8.94439e-15 -70.5848 -70.5848 -2.22297e-13 -56.4745 -84.6917 -3.58798e-13 -42.3608 -98.7954 -4.03817e-13 -28.2439 -112.896 -4.34625e-13 -14.1236 -126.993 -5.56915e-13 1.98952e-13 -141.086 -6.54337e-13 14.1269 -155.177 -7.03797e-13 28.2572 -169.264 -7.21282e-13 -155.184 42.3788 1.75619e-12 -141.09 28.2499 1.40622e-12 -126.993 14.1236 1.14018e-12 -112.893 1.42109e-13 7.67119e-13 -98.7908 -14.1209 5.18846e-13 -84.6858 -28.2392 1.73761e-13 -70.5781 -42.3549 -1.42015e-13 -56.4678 -56.4678 -4.86211e-13 -42.3549 -70.5781 -6.31011e-13 -28.2392 -84.6858 -8.16668e-13 -14.1209 -98.7908 -1.03385e-12 2.55795e-13 -112.893 -1.17732e-12 14.1236 -126.993 -1.26217e-12 28.2499 -141.09 -1.46959e-12 42.3788 -155.184 -1.54911e-12 -141.1 56.4957 1.4463e-12 -126.999 42.3688 1.18899e-12 -112.896 28.2439 1.00229e-12 -98.7908 14.1209 6.38836e-13 -84.6838 6.25278e-13 2.94482e-13 -70.5748 -14.1189 -2.94438e-14 -56.4638 -28.2359 -3.51593e-13 -42.3509 -42.3509 -6.3644e-13 -28.2359 -56.4638 -9.19212e-13 -14.1189 -70.5748 -1.15047e-12 5.40012e-13 -84.6838 -1.42614e-12 14.1209 -98.7908 -1.65384e-12 28.2439 -112.896 -1.89487e-12 42.3688 -126.999 -2.24781e-12 56.4957 -141.1 -2.43022e-12 -127.011 70.608 1.33359e-12 -112.904 56.4838 1.00318e-12 -98.7954 42.3608 7.30276e-13 -84.6858 28.2392 4.14186e-13 -70.5748 14.1189 7.50039e-14 -56.4625 5.68434e-13 -2.13108e-13 -42.3489 -14.1176 -5.36303e-13 -28.2339 -28.2339 -8.39958e-13 -14.1176 -42.3489 -1.19453e-12 6.25278e-13 -56.4625 -1.53623e-12 14.1189 -70.5748 -1.86549e-12 28.2392 -84.6858 -2.26093e-12 42.3608 -98.7954 -2.58264e-12 56.4838 -112.904 -2.9088e-12 70.608 -127.011 -3.24383e-12 -112.917 84.7157 1.09298e-12 -98.8047 70.5947 7.40207e-13 -84.6917 56.4745 5.36