<?xml version="1.0"?> 
<VTKFile type="StructuredGrid" version="0.1"> 
<StructuredGrid WholeExtent="0 14 0 14 0 29"> 
<Piece Extent="0 14 0 14 0 29"> 
<PointData>
<DataArray type="Float32" Name="hfield" format="ascii" NumberOfComponents="3"> 
-2174.09 6.33918e-10 1.05661e-09 -2048.55 -185.045 1.04572e-09 -1918.44 -365.512 1.03441e-09 -1783.74 -541.402 1.02332e-09 -1644.47 -712.715 1.01215e-09 -1500.62 -879.451 1.00107e-09 -1352.19 -1041.61 9.89928e-10 -1199.19 -1199.19 9.7873e-10 -1041.61 -1352.19 9.02304e-10 -879.451 -1500.62 8.25764e-10 -712.715 -1644.47 7.49139e-10 -541.402 -1783.74 6.72685e-10 -365.512 -1918.44 5.95946e-10 -185.045 -2048.55 5.19776e-10 1.72804e-11 -2174.09 4.43265e-10 -2048.55 185.045 9.50143e-10 -1914.51 6.19964e-10 9.34934e-10 -1776.55 -181.121 9.19669e-10 -1634.66 -358.319 9.0441e-10 -1488.85 -531.594 8.8891e-10 -1339.12 -700.945 8.73694e-10 -1185.46 -866.373 8.58336e-10 -1027.88 -1027.88 8.42921e-10 -866.373 -1185.46 7.6994e-10 -700.945 -1339.12 6.97015e-10 -531.594 -1488.85 6.2419e-10 -358.319 -1634.66 5.51109e-10 -181.121 -1776.55 4.78369e-10 3.84262e-11 -1914.51 4.05345e-10 185.045 -2048.55 3.32435e-10 -1918.44 365.512 8.43794e-10 -1776.55 181.121 8.24227e-10 -1631.39 6.17149e-10 8.04787e-10 -1482.96 -177.852 7.85184e-10 -1331.27 -352.434 7.65609e-10 -1176.3 -523.747 7.46091e-10 -1018.07 -691.79 7.2663e-10 -856.564 -856.564 7.07113e-10 -691.79 -1018.07 6.37633e-10 -523.747 -1176.3 5.68351e-10 -352.434 -1331.27 4.98957e-10 -177.852 -1482.96 4.2959e-10 5.71845e-11 -1631.39 3.60338e-10 181.121 -1776.55 2.90801e-10 365.512 -1918.44 2.21378e-10 -1783.74 541.402 7.37446e-10 -1634.66 358.319 7.13576e-10 -1482.96 177.852 6.89906e-10 -1328.65 6.30621e-10 6.66143e-10 -1171.73 -175.236 6.42451e-10 -1012.18 -347.857 6.18659e-10 -850.025 -517.862 5.94953e-10 -685.251 -685.251 5.71247e-10 -517.862 -850.025 5.05439e-10 -347.857 -1012.18 4.39574e-10 -175.236 -1171.73 3.73809e-10 6.84395e-11 -1328.65 3.08071e-10 177.852 -1482.96 2.42306e-10 358.319 -1634.66 1.7654e-10 541.402 -1783.74 1.10434e-10 -1644.47 712.715 6.30813e-10 -1488.85 531.594 6.02961e-10 -1331.27 352.434 5.75074e-10 -1171.73 175.236 5.47101e-10 -1010.22 6.5279e-10 5.1915e-10 -846.756 -173.275 4.91284e-10 -681.328 -344.587 4.63361e-10 -513.939 -513.939 4.3541e-10 -344.587 -681.328 3.73146e-10 -173.275 -846.756 3.10967e-10 7.52607e-11 -1010.22 2.48689e-10 175.236 -1171.73 1.86467e-10 352.434 -1331.27 1.24274e-10 531.594 -1488.85 6.18821e-11 712.715 -1644.47 -3.39359e-13 -1500.62 879.451 5.24464e-10 -1339.12 700.945 4.92186e-10 -1176.3 523.747 4.60178e-10 -1012.18 347.857 4.28074e-10 -846.756 173.275 3.95906e-10 -680.02 6.82348e-10 3.63795e-10 -511.977 -171.967 3.31684e-10 -342.626 -342.626 2.99573e-10 -171.967 -511.977 2.4091e-10 7.53744e-11 -680.02 1.82232e-10 173.275 -846.756 1.23583e-10 347.857 -1012.18 6.48915e-11 523.747 -1176.3 6.27083e-12 700.945 -1339.12 -5.23782e-11 879.451 -1500.62 -1.11113e-10 -1352.19 1041.61 4.17945e-10 -1185.46 866.373 3.81569e-10 -1018.07 691.79 3.45321e-10 -850.025 517.862 3.08933e-10 -681.328 344.587 2.72648e-10 -511.977 171.967 2.36356e-10 -341.972 7.17137e-10 2.00028e-10 -171.313 -171.313 1.63722e-10 7.07701e-11 -341.972 1.0862e-10 171.967 -511.977 5.34974e-11 344.587 -681.328 -1.55084e-12 517.862 -850.025 -5.66985e-11 691.79 -1018.07 -1.11789e-10 866.373 -1185.46 -1.66738e-10 1041.61 -1352.19 -2.21914e-10 -1199.19 1199.19 3.11483e-10 -1027.88 1027.88 2.70881e-10 -856.564 856.564 2.30451e-10 -685.251 685.251 1.89906e-10 -513.939 513.939 1.49419e-10 -342.626 342.626 1.08931e-10 -171.313 171.313 6.83867e-11 5.72982e-11 7.53062e-10 2.78858e-11 171.313 -171.313 -2.3648e-11 342.626 -342.626 -7.5138e-11 513.939 -513.939 -1.26699e-10 685.251 -685.251 -1.78232e-10 856.564 -856.564 -2.29707e-10 1027.88 -1027.88 -2.81297e-10 1199.19 -1199.19 -3.32773e-10 -1041.61 1352.19 2.19615e-10 -866.373 1185.46 1.73982e-10 -691.79 1018.07 1.28193e-10 -517.862 850.025 8.24087e-11 -344.587 681.328 3.66924e-11 -171.967 511.977 -9.12337e-12 6.91216e-11 341.972 -5.48397e-11 171.313 171.313 -1.00584e-10 341.972 7.59997e-10 -1.51488e-10 511.977 -171.967 -2.0237e-10 681.328 -344.587 -2.53266e-10 850.025 -517.862 -3.04127e-10 1018.07 -691.79 -3.55001e-10 1185.46 -866.373 -4.06047e-10 1352.19 -1041.61 -4.56794e-10 -879.451 1500.62 1.27841e-10 -700.945 1339.12 7.69766e-11 -523.747 1176.3 2.59419e-11 -347.857 1012.18 -2.50253e-11 -173.275 846.756 -7.60849e-11 8.35598e-11 680.02 -1.27088e-10 171.967 511.977 -1.78062e-10 342.626 342.626 -2.29051e-10 511.977 171.967 -2.79357e-10 680.02 7.53971e-10 -3.29607e-10 846.756 -173.275 -3.79814e-10 1012.18 -347.857 -4.30106e-10 1176.3 -523.747 -4.8027e-10 1339.12 -700.945 -5.30719e-10 1500.62 -879.451 -5.80826e-10 -712.715 1644.47 3.61524e-11 -531.594 1488.85 -2.0151e-11 -352.434 1331.27 -7.64189e-11 -175.236 1171.73 -1.32601e-10 9.74296e-11 1010.22 -1.88834e-10 173.275 846.756 -2.4508e-10 344.587 681.328 -3.01327e-10 513.939 513.939 -3.57545e-10 681.328 344.587 -4.07141e-10 846.756 173.275 -4.56808e-10 1010.22 7.3851e-10 -5.06418e-10 1171.73 -175.236 -5.56071e-10 1331.27 -352.434 -6.05723e-10 1488.85 -531.594 -6.55177e-10 1644.47 -712.715 -7.04972e-10 -541.402 1783.74 -5.55929e-11 -358.319 1634.66 -1.1697e-10 -177.852 1482.96 -1.78602e-10 1.06638e-10 1328.65 -2.40092e-10 175.236 1171.73 -3.0164e-10 347.857 1012.18 -3.63059e-10 517.862 850.025 -4.24478e-10 685.251 685.251 -4.86011e-10 850.025 517.862 -5.35024e-10 1012.18 347.857 -5.84009e-10 1171.73 175.236 -6.32923e-10 1328.65 7.18046e-10 -6.82007e-10 1482.96 -177.852 -7.31063e-10 1634.66 -358.319 -7.80005e-10 1783.74 -541.402 -8.29004e-10 -365.512 1918.44 -1.47566e-10 -181.121 1776.55 -2.14186e-10 1.01977e-10 1631.39 -2.80821e-10 177.852 1482.96 -3.47626e-10 352.434 1331.27 -4.14389e-10 523.747 1176.3 -4.81123e-10 691.79 1018.07 -5.478e-10 856.564 856.564 -6.14534e-10 1018.07 691.79 -6.62894e-10 1176.3 523.747 -7.11196e-10 1331.27 352.434 -7.59485e-10 1482.96 177.852 -8.07859e-10 1631.39 6.97582e-10 -8.56232e-10 1776.55 -181.121 -9.04379e-10 1918.44 -365.512 -9.53037e-10 -185.045 2048.55 -2.39083e-10 7.74207e-11 1914.51 -3.11339e-10 181.121 1776.55 -3.83011e-10 358.319 1634.66 -4.55088e-10 531.594 1488.85 -5.27024e-10 700.945 1339.12 -5.9913e-10 866.373 1185.46 -6.71037e-10 1027.88 1027.88 -7.42943e-10 1185.46 866.373 -7.90649e-10 1339.12 700.945 -8.38384e-10 1488.85 531.594 -8.86132e-10 1634.66 358.319 -9.33767e-10 1776.55 181.121 -9.818e-10 1914.51 6.80302e-10 -1.02921e-09 2048.55 -185.045 -1.07696e-09 3.27418e-11 2174.09 -3.31056e-10 185.045 2048.55 -4.0815e-10 365.512 1918.44 -4.85272e-10 541.402 1783.74 -5.62494e-10 712.715 1644.47 -6.3983e-10 879.451 1500.62 -7.1708e-10 1041.61 1352.19 -7.94273e-10 1199.19 1199.19 -8.71523e-10 1352.19 1041.61 -9.18561e-10 1500.62 879.451 -9.65656e-10 1644.47 712.715 -1.01261e-09 1783.74 541.402 -1.0599e-09 1918.44 365.512 -1.10686e-09 2048.55 185.045 -1.15392e-09 2174.09 6.73936e-10 -1.20099e-09 -2312.65 6.51198e-10 1.03927e-09 -2179.1 -196.828 1.01928e-09 -2040.68 -388.788 9.99599e-10 -1897.39 -575.881 9.7981e-10 -1749.24 -758.106 9.59844e-10 -1596.22 -935.464 9.40048e-10 -1438.33 -1107.95 9.20153e-10 -1275.58 -1275.58 9.00343e-10 -1107.95 -1438.33 8.42554e-10 -935.464 -1596.22 7.84723e-10 -758.106 -1749.24 7.26914e-10 -575.881 -1897.39 6.69161e-10 -388.788 -2040.68 6.11465e-10 -196.828 -2179.1 5.53769e-10 -1.01863e-10 -2312.65 4.95788e-10 -2179.1 196.828 9.27498e-10 -2036.51 7.35938e-10 9.05946e-10 -1889.74 -192.656 8.8465e-10 -1738.81 -381.139 8.63208e-10 -1583.7 -565.45 8.41716e-10 -1424.43 -745.59 8.20451e-10 -1260.97 -921.557 7.99031e-10 -1093.35 -1093.35 7.7761e-10 -921.557 -1260.97 7.21038e-10 -745.59 -1424.43 6.64281e-10 -565.45 -1583.7 6.07602e-10 -381.139 -1738.81 5.50923e-10 -192.656 -1889.74 4.94216e-10 -8.28777e-11 -2036.51 4.37594e-10 196.828 -2179.1 3.80688e-10 -2040.68 388.788 8.15274e-10 -1889.74 192.656 7.92306e-10 -1735.33 8.13486e-10 7.69551e-10 -1577.45 -189.179 7.46534e-10 -1416.08 -374.881 7.23645e-10 -1251.24 -557.106 7.00769e-10 -1082.92 -735.855 6.77795e-10 -911.126 -911.126 6.5499e-10 -735.855 -1082.92 5.99336e-10 -557.106 -1251.24 5.43767e-10 -374.881 -1416.08 4.88205e-10 -189.179 -1577.45 4.326e-10 -7.44649e-11 -1735.33 3.7708e-10 192.656 -1889.74 3.21476e-10 388.788 -2040.68 2.657e-10 -1897.39 575.881 7.03333e-10 -1738.81 381.139 6.7889e-10 -1577.45 189.179 6.54553e-10 -1413.3 8.81414e-10 6.30038e-10 -1246.37 -186.397 6.05616e-10 -1076.66 -370.013 5.81116e-10 -904.173 -550.848 5.56715e-10 -728.901 -728.901 5.32271e-10 -550.848 -904.173 4.77762e-10 -370.013 -1076.66 4.23224e-10 -186.397 -1246.37 3.68708e-10 -7.57154e-11 -1413.3 3.14277e-10 189.179 -1577.45 2.59689e-10 381.139 -1738.81 2.05216e-10 575.881 -1897.39 1.50713e-10 -1749.24 758.106 5.91364e-10 -1583.7 565.45 5.65354e-10 -1416.08 374.881 5.39501e-10 -1246.37 186.397 5.13436e-10 -1074.58 9.37916e-10 4.87488e-10 -900.696 -184.311 4.61533e-10 -724.729 -366.537 4.35564e-10 -546.676 -546.676 4.09609e-10 -366.537 -724.729 3.56206e-10 -184.311 -900.696 3.0281e-10 -7.86713e-11 -1074.58 2.49339e-10 186.397 -1246.37 1.95968e-10 374.881 -1416.08 1.42483e-10 565.45 -1583.7 8.90692e-11 758.106 -1749.24 3.56127e-11 -1596.22 935.464 4.79381e-10 -1424.43 745.59 4.51847e-10 -1251.24 557.106 4.24417e-10 -1076.66 370.013 3.96951e-10 -900.696 184.311 3.69431e-10 -723.338 9.81345e-10 3.41908e-10 -544.59 -182.921 3.14435e-10 -364.451 -364.451 2.86926e-10 -182.921 -544.59 2.34579e-10 -7.78755e-11 -723.338 1.82261e-10 184.311 -900.696 1.29921e-10 370.013 -1076.66 7.75455e-11 557.106 -1251.24 2.52484e-11 745.59 -1424.43 -2.70914e-11 935.464 -1596.22 -7.94028e-11 -1438.33 1107.95 3.67434e-10 -1260.97 921.557 3.38377e-10 -1082.92 735.855 3.09402e-10 -904.173 550.848 2.80325e-10 -724.729 366.537 2.51324e-10 -544.59 182.921 2.22287e-10 -363.755 1.00908e-09 1.93277e-10 -182.225 -182.225 1.64253e-10 -7.00311e-11 -363.755 1.12989e-10 182.921 -544.59 6.17503e-11 366.537 -724.729 1.04989e-11 550.848 -904.173 -4.07562e-11 735.855 -1082.92 -9.2029e-11 921.557 -1260.97 -1.43288e-10 1107.95 -1438.33 -1.94546e-10 -1275.58 1275.58 2.55432e-10 -1093.35 1093.35 2.24905e-10 -911.126 911.126 1.9435e-10 -728.901 728.901 1.63767e-10 -546.676 546.676 1.3324e-10 -364.451 364.451 1.02678e-10 -182.225 182.225 7.21117e-11 -5.00222e-11 1.02045e-09 4.15757e-11 182.225 -182.225 -8.58387e-12 364.451 -364.451 -5.87621e-11 546.676 -546.676 -1.08915e-10 728.901 -728.901 -1.5909e-10 911.126 -911.126 -2.0925e-10 1093.35 -1093.35 -2.59411e-10 1275.58 -1275.58 -3.09571e-10 -1107.95 1438.33 1.55936e-10 -921.557 1260.97 1.21987e-10 -735.855 1082.92 8.81322e-11 -550.848 904.173 5.42073e-11 -366.537 724.729 2.02718e-11 -182.921 544.59 -1.36247e-11 3.97904e-12 363.755 -4.75495e-11 182.225 182.225 -8.14815e-11 363.755 1.02182e-09 -1.28805e-10 544.59 -182.921 -1.76161e-10 724.729 -366.537 -2.23505e-10 904.173 -550.848 -2.7083e-10 1082.92 -735.855 -3.18124e-10 1260.97 -921.557 -3.65489e-10 1438.33 -1107.95 -4.12854e-10 -935.464 1596.22 5.64881e-11 -745.59 1424.43 1.91953e-11 -557.106 1251.24 -1.81011e-11 -370.013 1076.66 -5.53477e-11 -184.311 900.696 -9.27045e-11 4.36557e-11 723.338 -1.29958e-10 182.921 544.59 -1.67233e-10 364.451 364.451 -2.0453e-10 544.59 182.921 -2.49024e-10 723.338 1.03137e-09 -2.93561e-10 900.696 -184.311 -3.38041e-10 1076.66 -370.013 -3.82599e-10 1251.24 -557.106 -4.27065e-10 1424.43 -745.59 -4.71559e-10 1596.22 -935.464 -5.16167e-10 -758.106 1749.24 -4.3002e-11 -565.45 1583.7 -8.36344e-11 -374.881 1416.08 -1.24405e-10 -186.397 1246.37 -1.64952e-10 7.03722e-11 1074.58 -2.05596e-10 184.311 900.696 -2.46274e-10 366.537 724.729 -2.86875e-10 546.676 546.676 -3.2756e-10 724.729 366.537 -3.69241e-10 900.696 184.311 -4.10971e-10 1074.58 1.0391e-09 -4.52658e-10 1246.37 -186.397 -4.94367e-10 1416.08 -374.881 -5.36062e-10 1583.7 -565.45 -5.77757e-10 1749.24 -758.106 -6.19451e-10 -575.881 1897.39 -1.42421e-10 -381.139 1738.81 -1.86493e-10 -189.179 1577.45 -2.30479e-10 8.74252e-11 1413.3 -2.74504e-10 186.397 1246.37 -3.18551e-10 370.013 1076.66 -3.62533e-10 550.848 904.173 -4.06615e-10 728.901 728.901 -4.50612e-10 904.173 550.848 -4.89464e-10 1076.66 370.013 -5.28331e-10 1246.37 186.397 -5.67226e-10 1413.3 1.03773e-09 -6.06036e-10 1577.45 -189.179 -6.44889e-10 1738.81 -381.139 -6.83798e-10 1897.39 -575.881 -7.22736e-10 -388.788 2040.68 -2.41982e-10 -192.656 1889.74 -2.89379e-10 9.42464e-11 1735.33 -3.36826e-10 189.179 1577.45 -3.84091e-10 374.881 1416.08 -4.31513e-10 557.106 1251.24 -4.7892e-10 735.855 1082.92 -5.26256e-10 911.126 911.126 -5.73692e-10 1082.92 735.855 -6.09717e-10 1251.24 557.106 -6.45755e-10 1416.08 374.881 -6.81808e-10 1577.45 189.179 -7.17876e-10 1735.33 1.01772e-09 -7.53829e-10 1889.74 -192.656 -7.89811e-10 2040.68 -388.788 -8.25878e-10 -196.828 2179.1 -3.41572e-10 9.51559e-11 2036.51 -3.92088e-10 192.656 1889.74 -4.4308e-10 381.139 1738.81 -4.93628e-10 565.45 1583.7 -5.44347e-10 745.59 1424.43 -5.95236e-10 921.557 1260.97 -6.45912e-10 1093.35 1093.35 -6.96701e-10 1260.97 921.557 -7.29969e-10 1424.43 745.59 -7.6318e-10 1583.7 565.45 -7.96376e-10 1738.81 381.139 -8.2963e-10 1889.74 192.656 -8.62826e-10 2036.51 9.7134e-10 -8.96023e-10 2179.1 -196.828 -9.29163e-10 9.1859e-11 2312.65 -4.40934e-10 196.828 2179.1 -4.94975e-10 388.788 2040.68 -5.492e-10 575.881 1897.39 -6.03279e-10 758.106 1749.24 -6.57352e-10 935.464 1596.22 -7.11509e-10 1107.95 1438.33 -7.65567e-10 1275.58 1275.58 -8.19767e-10 1438.33 1107.95 -8.50136e-10 1596.22 935.464 -8.80505e-10 1749.24 758.106 -9.10916e-10 1897.39 575.881 -9.41355e-10 2040.68 388.788 -9.71568e-10 2179.1 196.828 -1.00221e-09 2312.65 8.91305e-10 -1.03256e-09 -2436.84 8.92214e-10 9.42578e-10 -2295.75 -207.03 9.19592e-10 -2149.59 -408.989 8.96662e-10 -1998.36 -605.874 8.73825e-10 -1842.05 -797.688 8.50775e-10 -1680.67 -984.429 8.27981e-10 -1514.22 -1166.1 8.0496e-10 -1342.69 -1342.69 7.81995e-10 -1166.1 -1514.22 7.22878e-10 -984.429 -1680.67 6.63647e-10 -797.688 -1842.05 6.04473e-10 -605.874 -1998.36 5.45299e-10 -408.989 -2149.59 4.86125e-10 -207.03 -2295.75 4.26894e-10 4.82032e-11 -2436.84 3.67777e-10 -2295.75 207.03 8.4762e-10 -2145.24 9.64251e-10 8.24353e-10 -1990.39 -202.683 8.01272e-10 -1831.18 -401.018 7.77977e-10 -1667.63 -595.005 7.54696e-10 -1499.73 -784.645 7.31642e-10 -1327.48 -969.936 7.0839e-10 -1150.88 -1150.88 6.85194e-10 -969.936 -1327.48 6.26474e-10 -784.645 -1499.73 5.67698e-10 -595.005 -1667.63 5.08878e-10 -401.018 -1831.18 4.50315e-10 -202.683 -1990.39 3.91467e-10 -1.92699e-11 -2145.24 3.32619e-10 207.03 -2295.75 2.73885e-10 -2149.59 408.989 7.52662e-10 -1990.39 202.683 7.29073e-10 -1827.56 1.02659e-09 7.05739e-10 -1661.11 -199.06 6.82327e-10 -1491.03 -394.496 6.5873e-10 -1317.33 -586.31 6.35246e-10 -1140.01 -774.5 6.11763e-10 -959.067 -959.067 5.88394e-10 -774.5 -1140.01 5.3e-10 -586.31 -1317.33 4.71692e-10 -394.496 -1491.03 4.13398e-10 -199.06 -1661.11 3.55047e-10 -6.43468e-11 -1827.56 2.96752e-10 202.683 -1990.39 2.38458e-10 408.989 -2149.59 1.79994e-10 -1998.36 605.874 6.57762e-10 -1831.18 401.018 6.33906e-10 -1661.11 199.06 6.10234e-10 -1488.13 1.08173e-09 5.86492e-10 -1312.26 -196.161 5.62721e-10 -1133.49 -389.424 5.38993e-10 -951.821 -579.788 5.15279e-10 -767.254 -767.254 4.91536e-10 -579.788 -951.821 4.33611e-10 -389.424 -1133.49 3.75686e-10 -196.161 -1312.26 3.17803e-10 -9.07221e-11 -1488.13 2.59892e-10 199.06 -1661.11 2.02038e-10 401.018 -1831.18 1.4407e-10 605.874 -1998.36 8.61588e-11 -1842.05 797.688 5.62804e-10 -1667.63 595.005 5.38707e-10 -1491.03 394.496 5.14808e-10 -1312.26 196.161 4.907e-10 -1131.32 1.12732e-09 4.66712e-10 -948.198 -193.987 4.42725e-10 -762.906 -385.801 4.1868e-10 -575.44 -575.44 3.94707e-10 -385.801 -762.906 3.37229e-10 -193.987 -948.198 2.79722e-10 -9.92486e-11 -1131.32 2.22265e-10 196.161 -1312.26 1.64737e-10 394.496 -1491.03 1.07266e-10 595.005 -1667.63 4.96814e-11 797.688 -1842.05 -7.78975e-12 -1680.67 984.429 4.67761e-10 -1499.73 784.645 4.43603e-10 -1317.33 586.31 4.19282e-10 -1133.49 389.424 3.95007e-10 -948.198 193.987 3.70689e-10 -761.457 1.16279e-09 3.46414e-10 -573.266 -192.538 3.22139e-10 -383.627 -383.627 2.97864e-10 -192.538 -573.266 2.4079e-10 -9.43601e-11 -761.457 1.83702e-10 193.987 -948.198 1.26642e-10 389.424 -1133.49 6.95544e-11 586.31 -1317.33 1.25231e-11 784.645 -1499.73 -4.45649e-11 984.429 -1680.67 -1.01625e-10 -1514.22 1166.1 3.72889e-10 -1327.48 969.936 3.48316e-10 -1140.01 774.5 3.23835e-10 -951.821 579.788 2.99208e-10 -762.906 385.801 2.74674e-10 -573.266 192.538 2.50139e-10 -382.902 1.19053e-09 2.25591e-10 -191.813 -191.813 2.01035e-10 -8.18545e-11 -382.902 1.4439e-10 192.538 -573.266 8.77103e-11 385.801 -762.906 3.10906e-11 579.788 -951.821 -2.5586e-11 774.5 -1140.01 -8.22057e-11 969.936 -1327.48 -1.38797e-10 1166.1 -1514.22 -1.95502e-10 -1342.69 1342.69 2.77947e-10 -1150.88 1150.88 2.53156e-10 -959.067 959.067 2.28252e-10 -767.254 767.254 2.03461e-10 -575.44 575.44 1.78671e-10 -383.627 383.627 1.53838e-10 -191.813 191.813 1.29019e-10 -6.63931e-11 1.20781e-09 1.04208e-10 191.813 -191.813 4.7984e-11 383.627 -383.627 -8.25093e-12 575.44 -575.44 -6.44646e-11 767.254 -767.254 -1.20707e-10 959.067 -959.067 -1.76949e-10 1150.88 -1150.88 -2.33191e-10 1342.69 -1342.69 -2.89433e-10 -1166.1 1514.22 1.76925e-10 -969.936 1327.48 1.47849e-10 -774.5 1140.01 1.18844e-10 -579.788 951.821 8.98694e-11 -385.801 762.906 6.07479e-11 -192.538 573.266 3.17684e-11 -2.55227e-11 382.902 2.70006e-12 191.813 191.813 -2.63256e-11 382.902 1.20031e-09 -7.46656e-11 573.266 -192.538 -1.22988e-10 762.906 -385.801 -1.71354e-10 951.821 -579.788 -2.19707e-10 1140.01 -774.5 -2.68031e-10 1327.48 -969.936 -3.16319e-10 1514.22 -1166.1 -3.64693e-10 -984.429 1680.67 7.59997e-11 -784.645 1499.73 4.26379e-11 -586.31 1317.33 9.39693e-12 -389.424 1133.49 -2.38174e-11 -193.987 948.198 -5.71063e-11 1.13687e-11 761.457 -9.03242e-11 192.538 573.266 -1.23592e-10 383.627 383.627 -1.56859e-10 573.266 192.538 -1.97311e-10 761.457 1.18621e-09 -2.37733e-10 948.198 -193.987 -2.78163e-10 1133.49 -389.424 -3.1865e-10 1317.33 -586.31 -3.5908e-10 1499.73 -784.645 -3.99524e-10 1680.67 -984.429 -4.39996e-10 -797.688 1842.05 -2.50111e-11 -595.005 1667.63 -6.25064e-11 -394.496 1491.03 -1.00002e-10 -196.161 1312.26 -1.3749e-10 4.26326e-11 1131.32 -1.74936e-10 193.987 948.198 -2.12395e-10 385.801 762.906 -2.49941e-10 575.44 575.44 -2.874e-10 762.906 385.801 -3.19957e-10 948.198 193.987 -3.52543e-10 1131.32 1.16552e-09 -3.85057e-10 1312.26 -196.161 -4.17629e-10 1491.03 -394.496 -4.50143e-10 1667.63 -595.005 -4.82714e-10 1842.05 -797.688 -5.15229e-10 -605.874 1998.36 -1.26022e-10 -401.018 1831.18 -1.67741e-10 -199.06 1661.11 -2.0939e-10 7.08269e-11 1488.13 -2.5112e-10 196.161 1312.26 -2.92815e-10 389.424 1133.49 -3.34524e-10 579.788 951.821 -3.76218e-10 767.254 767.254 -4.17941e-10 951.821 579.788 -4.4259e-10 1133.49 389.424 -4.6721e-10 1312.26 196.161 -4.91895e-10 1488.13 1.13687e-09 -5.16536e-10 1661.11 -199.06 -5.41206e-10 1831.18 -401.018 -5.65819e-10 1998.36 -605.874 -5.90546e-10 -408.989 2149.59 -2.26919e-10 -202.683 1990.39 -2.72863e-10 9.17453e-11 1827.56 -3.18991e-10 199.06 1661.11 -3.64736e-10 394.496 1491.03 -4.10722e-10 586.31 1317.33 -4.56623e-10 774.5 1140.01 -5.02553e-10 959.067 959.067 -5.48425e-10 1140.01 774.5 -5.65279e-10 1317.33 586.31 -5.8202e-10 1491.03 394.496 -5.98675e-10 1661.11 199.06 -6.15557e-10 1827.56 1.10049e-09 -6.32269e-10 1990.39 -202.683 -6.48981e-10 2149.59 -408.989 -6.65864e-10 -207.03 2295.75 -3.27987e-10 1.05956e-10 2145.24 -3.78208e-10 202.683 1990.39 -4.28372e-10 401.018 1831.18 -4.78337e-10 595.005 1667.63 -5.28559e-10 784.645 1499.73 -5.78694e-10 969.936 1327.48 -6.28916e-10 1150.88 1150.88 -6.78995e-10 1327.48 969.936 -6.87905e-10 1499.73 784.645 -6.96815e-10 1667.63 595.005 -7.05654e-10 1831.18 401.018 -7.14465e-10 1990.39 202.683 -7.23333e-10 2145.24 1.05592e-09 -7.32257e-10 2295.75 -207.03 -7.40897e-10 1.13687e-10 2436.84 -4.2894e-10 207.03 2295.75 -4.83304e-10 408.989 2149.59 -5.37611e-10 605.874 1998.36 -5.92138e-10 797.688 1842.05 -6.46423e-10 984.429 1680.67 -7.00879e-10 1166.1 1514.22 -7.55222e-10 1342.69 1342.69 -8.09564e-10 1514.22 1166.1 -8.10488e-10 1680.67 984.429 -8.1144e-10 1842.05 797.688 -8.12577e-10 1998.36 605.874 -8.13486e-10 2149.59 408.989 -8.14339e-10 2295.75 207.03 -8.15362e-10 2436.84 1.00226e-09 -8.16385e-10 -2530.88 9.85438e-10 7.6504e-10 -2384.32 -214.994 7.52974e-10 -2232.49 -424.724 7.40864e-10 -2075.4 -629.19 7.28634e-10 -1913.05 -828.392 7.16383e-10 -1745.44 -1022.33 7.04351e-10 -1572.56 -1211 6.92128e-10 -1394.41 -1394.41 6.79977e-10 -1211 -1572.56 6.42815e-10 -1022.33 -1745.44 6.05718e-10 -828.392 -1913.05 5.68525e-10 -629.19 -2075.4 5.31389e-10 -424.724 -2232.49 4.94196e-10 -214.994 -2384.32 4.57032e-10 -8.79936e-11 -2530.88 4.19938e-10 -2384.32 214.994 7.04697e-10 -2227.98 1.08617e-09 6.89618e-10 -2067.13 -210.482 6.74478e-10 -1901.77 -416.452 6.59315e-10 -1731.9 -617.91 6.44036e-10 -1557.52 -814.855 6.28948e-10 -1378.62 -1007.29 6.13748e-10 -1195.21 -1195.21 5.98554e-10 -1007.29 -1378.62 5.59666e-10 -814.855 -1557.52 5.20779e-10 -617.91 -1731.9 4.81978e-10 -416.452 -1901.77 4.43019e-10 -210.482 -2067.13 4.04153e-10 -8.01492e-11 -2227.98 3.65246e-10 214.994 -2384.32 3.26479e-10 -2232.49 424.724 6.44441e-10 -2067.13 210.482 6.26221e-10 -1898.01 1.16928e-09 6.08044e-10 -1725.13 -206.722 5.89883e-10 -1548.49 -409.684 5.71676e-10 -1368.09 -608.885 5.53539e-10 -1183.93 -804.327 5.35332e-10 -996.008 -996.008 5.17188e-10 -804.327 -1183.93 4.76508e-10 -608.885 -1368.09 4.3589e-10 -409.684 -1548.49 3.95266e-10 -206.722 -1725.13 3.54663e-10 -7.94387e-11 -1898.01 3.14125e-10 210.482 -2067.13 2.73372e-10 424.724 -2232.49 2.32806e-10 -2075.4 629.19 5.84083e-10 -1901.77 416.452 5.62897e-10 -1725.13 206.722 5.41668e-10 -1545.48 1.23691e-09 5.20507e-10 -1362.83 -203.714 4.99329e-10 -1177.16 -404.42 4.78115e-10 -988.488 -602.117 4.56966e-10 -796.807 -796.807 4.3578e-10 -602.117 -988.488 3.93437e-10 -404.42 -1177.16 3.51062e-10 -203.714 -1362.83 3.08698e-10 -8.78799e-11 -1545.48 2.66315e-10 206.722 -1725.13 2.23983e-10 416.452 -1901.77 1.81629e-10 629.19 -2075.4 1.39247e-10 -1913.05 828.392 5.23727e-10 -1731.9 617.91 4.99577e-10 -1548.49 409.684 4.75376e-10 -1362.83 203.714 4.5117e-10 -1174.9 1.29188e-09 4.26939e-10 -984.728 -201.458 4.02773e-10 -792.294 -400.659 3.78585e-10 -597.605 -597.605 3.54394e-10 -400.659 -792.294 3.10294e-10 -201.458 -984.728 2.66173e-10 -1.02148e-10 -1174.9 2.22068e-10 203.714 -1362.83 1.77981e-10 409.684 -1548.49 1.33891e-10 617.91 -1731.9 8.96797e-11 828.392 -1913.05 4.56453e-11 -1745.44 1022.33 4.63363e-10 -1557.52 814.855 4.36162e-10 -1368.09 608.885 4.08982e-10 -1177.16 404.42 3.81814e-10 -984.728 201.458 3.54582e-10 -790.79 1.33537e-09 3.27395e-10 -595.349 -199.954 3.00208e-10 -398.403 -398.403 2.73006e-10 -199.954 -595.349 2.27167e-10 -1.1903e-10 -790.79 1.81323e-10 201.458 -984.728 1.35464e-10 404.42 -1177.16 8.96114e-11 608.885 -1368.09 4.38122e-11 814.855 -1557.52 -2.00095e-12 1022.33 -1745.44 -4.79062e-11 -1572.56 1211 4.03024e-10 -1378.62 1007.29 3.72821e-10 -1183.93 804.327 3.42633e-10 -988.488 602.117 3.12407e-10 -792.294 400.659 2.82242e-10 -595.349 199.954 2.52028e-10 -397.651 1.36913e-09 2.21815e-10 -199.202 -199.202 1.91607e-10 -1.37163e-10 -397.651 1.44027e-10 199.954 -595.349 9.64307e-11 400.659 -792.294 4.88469e-11 602.117 -988.488 1.26126e-12 804.327 -1183.93 -4.63154e-11 1007.29 -1378.62 -9.38833e-11 1211 -1572.56 -1.41469e-10 -1394.41 1394.41 3.42667e-10 -1195.21 1195.21 3.09484e-10 -996.008 996.008 2.76272e-10 -796.807 796.807 2.4306e-10 -597.605 597.605 2.09856e-10 -398.403 398.403 1.7663e-10 -199.202 199.202 1.43426e-10 -1.55296e-10 1.39494e-09 1.10219e-10 199.202 -199.202 6.08938e-11 398.403 -398.403 1.1569e-11 597.605 -597.605 -3.7763e-11 796.807 -796.807 -8.70523e-11 996.008 -996.008 -1.36405e-10 1195.21 -1195.21 -1.85744e-10 1394.41 -1394.41 -2.35069e-10 -1211 1572.56 2.28853e-10 -1007.29 1378.62 1.97196e-10 -804.327 1183.93 1.65568e-10 -602.117 988.488 1.33849e-10 -400.659 792.294 1.02214e-10 -199.954 595.349 7.05646e-11 -9.80265e-11 397.651 3.89111e-11 199.202 199.202 7.25936e-12 397.651 1.38618e-09 -3.76629e-11 595.349 -199.954 -8.25816e-11 792.294 -400.659 -1.27493e-10 988.488 -602.117 -1.72414e-10 1183.93 -804.327 -2.17329e-10 1378.62 -1007.29 -2.62226e-10 1572.56 -1211 -3.07167e-10 -1022.33 1745.44 1.15005e-10 -814.855 1557.52 8.48303e-11 -608.885 1368.09 5.48281e-11 -404.42 1177.16 2.46917e-11 -201.458 984.728 -5.41794e-12 -2.91323e-11 790.79 -3.55153e-11 199.954 595.349 -6.56106e-11 398.403 398.403 -9.57132e-11 595.349 199.954 -1.36225e-10 790.79 1.35958e-09 -1.76738e-10 984.728 -201.458 -2.17255e-10 1177.16 -404.42 -2.57741e-10 1368.09 -608.885 -2.98277e-10 1557.52 -814.855 -3.38822e-10 1745.44 -1022.33 -3.79276e-10 -828.392 1913.05 1.17417e-12 -617.91 1731.9 -2.74092e-11 -409.684 1548.49 -5.59294e-11 -203.714 1362.83 -8.44953e-11 4.74643e-11 1174.9 -1.13022e-10 201.458 984.728 -1.41591e-10 400.659 792.294 -1.70122e-10 597.605 597.605 -1.98666e-10 792.294 400.659 -2.34781e-10 984.728 201.458 -2.70913e-10 1174.9 1.31865e-09 -3.07005e-10 1362.83 -203.714 -3.43111e-10 1548.49 -409.684 -3.79235e-10 1731.9 -617.91 -4.15323e-10 1913.05 -828.392 -4.51439e-10 -629.19 2075.4 -1.12621e-10 -416.452 1901.77 -1.39664e-10 -206.722 1725.13 -1.66679e-10 1.28978e-10 1545.48 -1.93669e-10 203.714 1362.83 -2.20681e-10 404.42 1177.16 -2.4765e-10 602.117 988.488 -2.74696e-10 796.807 796.807 -3.01652e-10 988.488 602.117 -3.33354e-10 1177.16 404.42 -3.65054e-10 1362.83 203.714 -3.96776e-10 1545.48 1.2667e-09 -4.28413e-10 1725.13 -206.722 -4.60121e-10 1901.77 -416.452 -4.91887e-10 2075.4 -629.19 -5.23538e-10 -424.724 2232.49 -2.2643e-10 -210.482 2067.13 -2.5199e-10 2.09639e-10 1898.01 -2.77415e-10 206.722 1725.13 -3.02841e-10 409.684 1548.49 -3.28315e-10 608.885 1368.09 -3.5373e-10 804.327 1183.93 -3.79158e-10 996.008 996.008 -4.04622e-10 1183.93 804.327 -4.31951e-10 1368.09 608.885 -4.59215e-10 1548.49 409.684 -4.86508e-10 1725.13 206.722 -5.13865e-10 1898.01 1.20667e-09 -5.41108e-10 2067.13 -210.482 -5.68365e-10 2232.49 -424.724 -5.95652e-10 -214.994 2384.32 -3.40311e-10 2.83947e-10 2227.98 -3.64213e-10 210.482 2067.13 -3.88159e-10 416.452 1901.77 -4.12026e-10 617.91 1731.9 -4.35857e-10 814.855 1557.52 -4.59809e-10 1007.29 1378.62 -4.83698e-10 1195.21 1195.21 -5.0755e-10 1378.62 1007.29 -5.30495e-10 1557.52 814.855 -5.53334e-10 1731.9 617.91 -5.76283e-10 1901.77 416.452 -5.99089e-10 2067.13 210.482 -6.22109e-10 2227.98 1.14051e-09 -6.44973e-10 2384.32 -214.994 -6.67878e-10 3.50155e-10 2530.88 -4.54049e-10 214.994 2384.32 -4.76539e-10 424.724 2232.49 -4.98835e-10 629.19 2075.4 -5.21264e-10 828.392 1913.05 -5.43548e-10 1022.33 1745.44 -5.65882e-10 1211 1572.56 -5.8818e-10 1394.41 1394.41 -6.10564e-10 1572.56 1211 -6.29033e-10 1745.44 1022.33 -6.47524e-10 1913.05 828.392 -6.65986e-10 2075.4 629.19 -6.8447e-10 2232.49 424.724 -7.02911e-10 2384.32 214.994 -7.21337e-10 2530.88 1.07502e-09 -7.39877e-10 -2594.41 1.01727e-09 5.81785e-10 -2444.04 -220.26 5.78472e-10 -2288.29 -435.143 5.75202e-10 -2127.17 -644.651 5.71809e-10 -1960.67 -848.782 5.68572e-10 -1788.8 -1047.54 5.65198e-10 -1611.55 -1240.92 5.61881e-10 -1428.92 -1428.92 5.58565e-10 -1240.92 -1611.55 5.43772e-10 -1047.54 -1788.8 5.28954e-10 -848.782 -1960.67 5.14204e-10 -644.651 -2127.17 4.99398e-10 -435.143 -2288.29 4.84718e-10 -220.26 -2444.04 4.69957e-10 -1.17325e-10 -2594.41 4.55049e-10 -2444.04 220.26 5.46292e-10 -2283.68 1.11397e-09 5.39049e-10 -2118.72 -215.652 5.31859e-10 -1949.15 -426.695 5.24537e-10 -1774.97 -633.131 5.17286e-10 -1596.19 -834.958 5.10056e-10 -1412.79 -1032.18 5.02841e-10 -1224.79 -1224.79 4.95597e-10 -1032.18 -1412.79 4.7734e-10 -834.958 -1596.19 4.59154e-10 -633.131 -1774.97 4.40903e-10 -426.695 -1949.15 4.22598e-10 -215.652 -2118.72 4.04389e-10 -1.18177e-10 -2283.68 3.86155e-10 220.26 -2444.04 3.67804e-10 -2288.29 435.143 5.1054e-10 -2118.72 215.652 4.99341e-10 -1945.31 1.19832e-09 4.88303e-10 -1768.06 -211.812 4.77191e-10 -1586.97 -419.783 4.66023e-10 -1402.04 -623.914 4.54914e-10 -1213.27 -824.206 4.43746e-10 -1020.66 -1020.66 4.3266e-10 -824.206 -1213.27 4.10939e-10 -623.914 -1402.04 3.89234e-10 -419.783 -1586.97 3.67504e-10 -211.812 -1768.06 3.45752e-10 -1.23407e-10 -1945.31 3.24113e-10 215.652 -2118.72 3.02263e-10 435.143 -2288.29 2.80609e-10 -2127.17 644.651 4.74962e-10 -1949.15 426.695 4.59872e-10 -1768.06 211.812 4.44861e-10 -1583.9 1.27147e-09 4.29818e-10 -1396.66 -208.739 4.14828e-10 -1206.36 -414.407 3.99746e-10 -1012.98 -617.002 3.84747e-10 -816.525 -816.525 3.69707e-10 -617.002 -1012.98 3.44539e-10 -414.407 -1206.36 3.19321e-10 -208.739 -1396.66 2.94133e-10 -1.33753e-10 -1583.9 2.68965e-10 211.812 -1768.06 2.43711e-10 426.695 -1949.15 2.18572e-10 644.651 -2127.17 1.93419e-10 -1960.67 848.782 4.3924e-10 -1774.97 633.131 4.20368e-10 -1586.97 419.783 4.01419e-10 -1396.66 208.739 3.82477e-10 -1204.05 1.33355e-09 3.63549e-10 -1009.14 -206.435 3.44611e-10 -811.917 -410.567 3.25686e-10 -612.394 -612.394 3.06777e-10 -410.567 -811.917 2.78118e-10 -206.435 -1009.14 2.49474e-10 -1.45519e-10 -1204.05 2.20798e-10 208.739 -1396.66 1.92149e-10 419.783 -1586.97 1.63493e-10 633.131 -1774.97 1.34812e-10 848.782 -1960.67 1.0614e-10 -1788.8 1047.54 4.03619e-10 -1596.19 834.958 3.80752e-10 -1402.04 623.914 3.57967e-10 -1206.36 414.407 3.35157e-10 -1009.14 206.435 3.12296e-10 -810.381 1.38402e-09 2.89477e-10 -610.09 -204.899 2.66661e-10 -408.263 -408.263 2.43824e-10 -204.899 -610.09 2.11697e-10 -1.58934e-10 -810.381 1.79546e-10 206.435 -1009.14 1.47425e-10 414.407 -1206.36 1.15284e-10 623.914 -1402.04 8.3182e-11 834.958 -1596.19 5.10351e-11 1047.54 -1788.8 1.89059e-11 -1611.55 1240.92 3.67976e-10 -1412.79 1032.18 3.41224e-10 -1213.27 824.206 3.14563e-10 -1012.98 617.002 2.87779e-10 -811.917 410.567 2.61063e-10 -610.09 204.899 2.34331e-10 -407.495 1.42268e-09 2.07614e-10 -204.131 -204.131 1.8089e-10 -1.70758e-10 -407.495 1.45285e-10 204.899 -610.09 1.09673e-10 410.567 -811.917 7.40798e-11 617.002 -1012.98 3.84779e-11 824.206 -1213.27 2.86268e-12