<?xml version="1.0"?> 
<VTKFile type="StructuredGrid" version="0.1"> 
<StructuredGrid WholeExtent="0 14 0 14 0 29"> 
<Piece Extent="0 14 0 14 0 29"> 
<PointData>
<DataArray type="Float32" Name="hfield" format="ascii" NumberOfComponents="3"> 
43.8016 -0.896374 0.323401 44.5769 1.95718 0.143859 45.5115 3.64517 0.00150185 46.6175 4.51539 -0.114139 47.9113 4.78726 -0.209939 49.4137 4.60248 -0.290601 51.1516 4.05299 -0.35945 53.1589 3.19699 -0.418905 51.6803 3.36389 -0.444497 50.3132 3.36527 -0.467017 49.0524 3.19298 -0.486986 47.8948 2.83113 -0.504814 46.8392 2.25415 -0.520829 45.8874 1.42358 -0.535293 45.0448 0.282501 -0.548421 40.0962 -3.32031 0.241307 41.5995 -2.05875 0.108497 43.1558 -1.48983 0.00114064 44.8087 -1.42146 -0.0870582 46.5974 -1.72823 -0.160481 48.5615 -2.32783 -0.222271 50.7434 -3.16723 -0.274742 53.1917 -4.2144 -0.319633 51.9662 -3.81599 -0.338288 50.9081 -3.56066 -0.354262 50.0234 -3.45184 -0.367981 49.3234 -3.49932 -0.379784 48.8276 -3.72079 -0.389947 48.5661 -4.14482 -0.398698 48.5856 -4.81576 -0.406224 36.8772 -6.23064 0.181233 38.7784 -6.05284 0.0819579 40.6832 -6.28716 0.000864684 42.6448 -6.82603 -0.066116 44.7112 -7.59951 -0.121932 46.9295 -8.56325 -0.16877 49.3499 -9.6913 -0.208288 52.0287 -10.9719 -0.241764 50.9715 -10.4327 -0.255124 50.1204 -10.0328 -0.266243 49.4898 -9.77494 -0.275461 49.1027 -9.66783 -0.283058 48.9953 -9.72796 -0.28926 49.2225 -9.98272 -0.294258 49.8685 -10.476 -0.298211 33.8782 -9.36097 0.134148 35.9896 -9.94871 0.060851 38.0779 -10.7721 0.00064305 40.1981 -11.7751 -0.0491937 42.4004 -12.9236 -0.0906842 44.7347 -14.1996 -0.125368 47.2537 -15.5975 -0.154437 50.0175 -17.1218 -0.178827 49.068 -16.4945 -0.188165 48.3488 -16.0154 -0.195716 47.8794 -15.689 -0.201746 47.6915 -15.5267 -0.206476 47.8333 -15.5486 -0.210088 48.3788 -15.7882 -0.212733 49.4425 -16.2993 -0.214541 30.9588 -12.5708 0.0950828 33.1618 -13.7097 0.0431976 35.3269 -14.9698 0.000456781 37.5067 -16.3291 -0.0349392 39.7505 -17.7785 -0.0643578 42.1075 -19.3193 -0.0888563 44.6306 -20.9615 -0.109265 47.3799 -22.7237 -0.126246 46.4982 -22.0385 -0.132501 45.8582 -21.518 -0.137424 45.4826 -21.1699 -0.141212 45.4077 -21.0105 -0.144029 45.6893 -21.067 -0.146011 46.4137 -21.3837 -0.147274 47.7158 -22.032 -0.147915 28.0402 -15.7816 0.0609946 30.2509 -17.3193 0.0277311 32.4174 -18.9039 0.000293277 34.5876 -20.5369 -0.0224251 36.8073 -22.2276 -0.0412753 39.1233 -23.9917 -0.0569234 41.586 -25.8517 -0.0698974 44.2533 -27.8378 -0.0806216 43.4152 -27.1122 -0.0844499 42.8198 -26.571 -0.0873955 42.4908 -26.2262 -0.0895888 42.4659 -26.0998 -0.0911382 42.8039 -26.2278 -0.0921353 43.596 -26.668 -0.0926571 44.9869 -27.5133 -0.0927696 25.0784 -18.9491 0.0298216 27.228 -20.773 0.0135625 29.3359 -22.5965 0.00014343 31.4433 -24.4385 -0.0109639 33.5904 -26.3218 -0.0201692 35.8195 -28.2731 -0.027795 38.1768 -30.3252 -0.0340985 40.716 -32.5176 -0.0392872 39.9084 -31.7613 -0.0411017 39.3365 -31.2094 -0.0424768 39.0227 -30.8782 -0.0434773 39.0035 -30.7956 -0.0441574 39.3363 -31.0063 -0.0445629 40.1107 -31.5817 -0.0447325 41.4701 -32.6362 -0.0446993 22.0503 -22.0503 -1.64564e-12 24.0732 -24.0732 -1.38857e-12 26.0678 -26.0678 -1.14904e-12 28.0658 -28.0658 -1.05403e-12 30.1002 -30.1002 -8.50348e-13 32.2064 -32.2064 -7.72017e-13 34.4248 -34.4248 -6.44009e-13 36.8031 -36.8031 -5.85955e-13 36.021 -36.021 -1.33544e-12 35.4611 -35.4611 -2.07439e-12 35.1433 -35.1433 -2.5248e-12 35.1005 -35.1005 -2.9385e-12 35.3852 -35.3852 -3.47278e-12 36.0799 -36.0799 -3.72994e-12 37.317 -37.317 -3.96894e-12 18.9491 -25.0784 -0.0298216 20.773 -27.228 -0.0135625 22.5965 -29.3359 -0.00014343 24.4385 -31.4433 0.0109639 26.3218 -33.5904 0.0201692 28.2731 -35.8195 0.027795 30.3252 -38.1768 0.0340985 32.5176 -40.716 0.0392872 31.7613 -39.9084 0.0411017 31.2094 -39.3365 0.0424768 30.8782 -39.0227 0.0434773 30.7956 -39.0035 0.0441574 31.0063 -39.3363 0.0445629 31.5817 -40.1107 0.0447325 32.6362 -41.4701 0.0446993 15.7816 -28.0402 -0.0609946 17.3193 -30.2509 -0.0277311 18.9039 -32.4174 -0.000293277 20.5369 -34.5876 0.0224251 22.2276 -36.8073 0.0412753 23.9917 -39.1233 0.0569234 25.8517 -41.586 0.0698974 27.8378 -44.2533 0.0806216 27.1122 -43.4152 0.0844499 26.571 -42.8198 0.0873955 26.2262 -42.4908 0.0895888 26.0998 -42.4659 0.0911382 26.2278 -42.8039 0.0921353 26.668 -43.596 0.0926571 27.5133 -44.9869 0.0927696 12.5708 -30.9588 -0.0950828 13.7097 -33.1618 -0.0431976 14.9698 -35.3269 -0.000456781 16.3291 -37.5067 0.0349392 17.7785 -39.7505 0.0643578 19.3193 -42.1075 0.0888563 20.9615 -44.6306 0.109265 22.7237 -47.3799 0.126246 22.0385 -46.4982 0.132501 21.518 -45.8582 0.137424 21.1699 -45.4826 0.141212 21.0105 -45.4077 0.144029 21.067 -45.6893 0.146011 21.3837 -46.4137 0.147274 22.032 -47.7158 0.147915 9.36097 -33.8782 -0.134148 9.94871 -35.9896 -0.060851 10.7721 -38.0779 -0.00064305 11.7751 -40.1981 0.0491937 12.9236 -42.4004 0.0906842 14.1996 -44.7347 0.125368 15.5975 -47.2537 0.154437 17.1218 -50.0175 0.178827 16.4945 -49.068 0.188165 16.0154 -48.3488 0.195716 15.689 -47.8794 0.201746 15.5267 -47.6915 0.206476 15.5486 -47.8333 0.210088 15.7882 -48.3788 0.212733 16.2993 -49.4425 0.214541 6.23064 -36.8772 -0.181233 6.05284 -38.7784 -0.0819579 6.28716 -40.6832 -0.000864684 6.82603 -42.6448 0.066116 7.59951 -44.7112 0.121932 8.56325 -46.9295 0.16877 9.6913 -49.3499 0.208288 10.9719 -52.0287 0.241764 10.4327 -50.9715 0.255124 10.0328 -50.1204 0.266243 9.77494 -49.4898 0.275461 9.66783 -49.1027 0.283058 9.72796 -48.9953 0.28926 9.98272 -49.2225 0.294258 10.476 -49.8685 0.298211 3.32031 -40.0962 -0.241307 2.05875 -41.5995 -0.108497 1.48983 -43.1558 -0.00114064 1.42146 -44.8087 0.0870582 1.72823 -46.5974 0.160481 2.32783 -48.5615 0.222271 3.16723 -50.7434 0.274742 4.2144 -53.1917 0.319633 3.81599 -51.9662 0.338288 3.56066 -50.9081 0.354262 3.45184 -50.0234 0.367981 3.49932 -49.3234 0.379784 3.72079 -48.8276 0.389947 4.14482 -48.5661 0.398698 4.81576 -48.5856 0.406224 0.896374 -43.8016 -0.323401 -1.95718 -44.5769 -0.143859 -3.64517 -45.5115 -0.00150185 -4.51539 -46.6175 0.114139 -4.78726 -47.9113 0.209939 -4.60248 -49.4137 0.290601 -4.05299 -51.1516 0.35945 -3.19699 -53.1589 0.418905 -3.36389 -51.6803 0.444497 -3.36527 -50.3132 0.467017 -3.19298 -49.0524 0.486986 -2.83113 -47.8948 0.504814 -2.25415 -46.8392 0.520829 -1.42358 -45.8874 0.535293 -0.282501 -45.0448 0.548421 97.0781 2.93373 1.89734 104.848 4.35259 1.35119 112.553 5.06717 1.07578 120.207 5.43832 0.961212 127.827 5.69279 0.944375 135.437 5.9815 0.988993 143.065 6.41042 1.07512 150.748 7.05833 1.19331 158.898 7.08638 1.86245 167.204 6.5371 2.25722 175.738 5.58237 2.37738 184.592 4.35114 2.22412 193.88 2.94085 1.79838 203.748 1.42528 1.09924 214.385 -0.139898 0.122208 89.4727 -3.74833 0.418464 97.9016 -4.73901 0.206811 106.123 -5.94487 0.145382 114.174 -7.17735 0.170915 122.083 -8.31232 0.24687 129.884 -9.2646 0.353039 137.608 -9.97336 0.479691 145.296 -10.3932 0.624135 154.995 -11.9006 1.14415 164.66 -13.6265 1.45423 174.38 -15.4588 1.55964 184.257 -17.3142 1.46787 194.417 -19.1306 1.18736 205.018 -20.8626 0.726356 216.259 -22.4775 0.0917963 82.4286 -10.9916 -0.342106 91.1341 -13.7868 -0.387946 99.5598 -16.5202 -0.346834 107.742 -19.0899 -0.258401 115.711 -21.4282 -0.145174 123.5 -23.4885 -0.018753 131.14 -25.2387 0.11653 138.67 -26.656 0.261365 149.277 -29.7089 0.657886 159.708 -32.7213 0.896264 170.054 -35.628 0.984681 180.423 -38.3839 0.933769 190.945 -40.9602 0.755594 201.78 -43.3418 0.462858 213.136 -45.5253 0.0682269 75.6195 -18.4699 -0.659405 84.3658 -22.6679 -0.629362 92.7875 -26.642 -0.548128 100.915 -30.3377 -0.441621 108.778 -33.7193 -0.324185 116.402 -36.7643 -0.202535 123.821 -39.4591 -0.0781959 131.067 -41.7968 0.0509651 142.079 -46.3432 0.344707 152.805 -50.6665 0.522387 163.336 -54.7381 0.593016 173.778 -58.5454 0.567861 184.259 -62.0899 0.459676 194.941 -65.3867 0.282166 206.029 -68.465 0.0496018 68.8638 -26.0016 -0.694396 77.4879 -31.316 -0.639471 85.7552 -36.3118 -0.554699 93.6907 -40.9615 -0.457002 101.318 -45.2492 -0.355478 108.662 -49.1674 -0.253956 115.751 -52.715 -0.152631 122.617 -55.8961 -0.0491034 133.635 -61.8432 0.15784 144.284 -67.4432 0.28359 154.651 -72.6965 0.336323 164.836 -77.6178 0.326045 174.964 -82.2357 0.264044 185.19 -86.5946 0.162539 195.717 -90.7573 0.0344855 62.056 -33.4812 -0.550382 70.4306 -39.6966 -0.500216 78.4244 -45.5406 -0.433628 86.0565 -51.0021 -0.360928 93.3466 -56.0777 -0.287519 100.316 -60.7697 -0.215463 106.989 -65.0857 -0.144487 113.396 -69.0376 -0.0726485 124.102 -76.2649 0.0590775 134.378 -83.0665 0.139378 144.305 -89.4663 0.174368 153.976 -95.5016 0.17144 163.509 -101.225 0.138907 173.049 -106.708 0.0857959 182.788 -112.047 0.0217611 55.135 -40.8476 -0.300037 63.1477 -47.7947 -0.271213 70.7635 -54.345 -0.235121 77.9957 -60.4982 -0.196662 84.8596 -66.259 -0.158361 91.3733 -71.6365 -0.121115 97.5583 -76.6442 -0.084676 103.441 -81.3002 -0.0479749 113.573 -89.6657 0.0160439 123.239 -97.5636 0.0551441 132.509 -105.036 0.0725813 141.466 -112.14 0.0722628 150.217 -118.948 0.0585761 158.895 -125.556 0.0362891 167.676 -132.092 0.0105242 48.0689 -48.0689 8.31335e-13 55.6088 -55.6088 2.34701e-13 62.7452 -62.7452 -2.28779e-13 69.4854 -69.4854 -7.34079e-13 75.8401 -75.8401 -1.12754e-12 81.8231 -81.8231 -1.32339e-12 87.4527 -87.4527 -1.5401e-12 92.7512 -92.7512 -1.63425e-12 102.093 -102.093 -1.45661e-12 110.955 -110.955 -1.33582e-12 119.395 -119.395 -1.08713e-12 127.484 -127.484 -8.88178e-13 135.313 -135.313 -8.3844e-13 143.001 -143.001 -6.71463e-13 150.699 -150.699 -5.63001e-13 40.8476 -55.135 0.300037 47.7947 -63.1477 0.271213 54.345 -70.7635 0.235121 60.4982 -77.9957 0.196662 66.259 -84.8596 0.158361 71.6365 -91.3733 0.121115 76.6442 -97.5583 0.084676 81.3002 -103.441 0.0479749 89.6657 -113.573 -0.0160439 97.5636 -123.239 -0.0551441 105.036 -132.509 -0.0725813 112.14 -141.466 -0.0722628 118.948 -150.217 -0.0585761 125.556 -158.895 -0.0362891 132.092 -167.676 -0.0105242 33.4812 -62.056 0.550382 39.6966 -70.4306 0.500216 45.5406 -78.4244 0.433628 51.0021 -86.0565 0.360928 56.0777 -93.3466 0.287519 60.7697 -100.316 0.215463 65.0857 -106.989 0.144487 69.0376 -113.396 0.0726485 76.2649 -124.102 -0.0590775 83.0665 -134.378 -0.139378 89.4663 -144.305 -0.174368 95.5016 -153.976 -0.17144 101.225 -163.509 -0.138907 106.708 -173.049 -0.0857959 112.047 -182.788 -0.0217611 26.0016 -68.8638 0.694396 31.316 -77.4879 0.639471 36.3118 -85.7552 0.554699 40.9615 -93.6907 0.457002 45.2492 -101.318 0.355478 49.1674 -108.662 0.253956 52.715 -115.751 0.152631 55.8961 -122.617 0.0491034 61.8432 -133.635 -0.15784 67.4432 -144.284 -0.28359 72.6965 -154.651 -0.336323 77.6178 -164.836 -0.326045 82.2357 -174.964 -0.264044 86.5946 -185.19 -0.162539 90.7573 -195.717 -0.0344855 18.4699 -75.6195 0.659405 22.6679 -84.3658 0.629362 26.642 -92.7875 0.548128 30.3377 -100.915 0.441621 33.7193 -108.778 0.324185 36.7643 -116.402 0.202535 39.4591 -123.821 0.0781959 41.7968 -131.067 -0.0509651 46.3432 -142.079 -0.344707 50.6665 -152.805 -0.522387 54.7381 -163.336 -0.593016 58.5454 -173.778 -0.567861 62.0899 -184.259 -0.459676 65.3867 -194.941 -0.282166 68.465 -206.029 -0.0496018 10.9916 -82.4286 0.342106 13.7868 -91.1341 0.387946 16.5202 -99.5598 0.346834 19.0899 -107.742 0.258401 21.4282 -115.711 0.145174 23.4885 -123.5 0.018753 25.2387 -131.14 -0.11653 26.656 -138.67 -0.261365 29.7089 -149.277 -0.657886 32.7213 -159.708 -0.896264 35.628 -170.054 -0.984681 38.3839 -180.423 -0.933769 40.9602 -190.945 -0.755594 43.3418 -201.78 -0.462858 45.5253 -213.136 -0.0682269 3.74833 -89.4727 -0.418464 4.73901 -97.9016 -0.206811 5.94487 -106.123 -0.145382 7.17735 -114.174 -0.170915 8.31232 -122.083 -0.24687 9.2646 -129.884 -0.353039 9.97336 -137.608 -0.479691 10.3932 -145.296 -0.624135 11.9006 -154.995 -1.14415 13.6265 -164.66 -1.45423 15.4588 -174.38 -1.55964 17.3142 -184.257 -1.46787 19.1306 -194.417 -1.18736 20.8626 -205.018 -0.726356 22.4775 -216.259 -0.0917963 -2.93373 -97.0781 -1.89734 -4.35259 -104.848 -1.35119 -5.06717 -112.553 -1.07578 -5.43832 -120.207 -0.961212 -5.69279 -127.827 -0.944375 -5.9815 -135.437 -0.988993 -6.41042 -143.065 -1.07512 -7.05833 -150.748 -1.19331 -7.08638 -158.898 -1.86245 -6.5371 -167.204 -2.25722 -5.58237 -175.738 -2.37738 -4.35114 -184.592 -2.22412 -2.94085 -193.88 -1.79838 -1.42528 -203.748 -1.09924 0.139898 -214.385 -0.122208 142.877 4.69323 6.59412 160.196 4.54022 1.9966 177.485 3.16653 -0.468933 194.789 1.51379 -1.79283 212.18 0.166117 -2.49491 229.763 -0.468488 -2.85669 247.679 -0.073576 -3.0257 266.116 1.62194 -3.06714 278.021 2.70508 1.31708 290.87 2.79 4.048 304.985 2.53899 5.24316 320.78 2.49338 4.99844 338.793 3.12953 3.38329 359.753 4.90885 0.432566 384.661 8.33175 -3.86627 133.097 -6.60785 5.14351 150.723 -8.70347 1.43468 168.03 -11.6794 -0.605088 185.072 -14.8521 -1.69926 201.903 -17.7664 -2.25391 218.594 -20.092 -2.50142 235.239 -21.5723 -2.57016 251.967 -21.9951 -2.52139 267.524 -24.5061 1.02747 283.345 -27.4223 3.18249 299.748 -30.2399 4.06386 317.117 -32.5514 3.78938 335.935 -34.0074 2.47014 356.829 -34.284 0.205713 380.641 -33.0472 -2.92165 123.122 -17.7146 3.97728 140.738 -21.8146 1.02071 157.875 -26.5036 -0.637416 174.562 -31.277 -1.52606 190.818 -35.7768 -1.95897 206.675 -39.7335 -2.12423 222.185 -42.937 -2.13061 237.426 -45.2179 -2.03335 255.701 -51.2625 0.781336 273.651 -57.1865 2.45042 291.549 -62.6139 3.0882 309.716 -67.2492 2.81731 328.554 -70.8539 1.76429 348.572 -73.2251 0.0558859 370.441 -74.1741 -2.18404 113.001 -28.6752 3.00176 130.294 -34.7807 0.711559 147.043 -41.2293 -0.59229 163.233 -47.6376 -1.29066 178.845 -53.7175 -1.61976 193.871 -59.2452 -1.72675 208.323 -64.0448 -1.69994 222.237 -67.978 -1.58649 242.341 -77.4015 0.574148 261.638 -86.2474 1.8285 280.331 -94.2374 2.27752 298.669 -101.165 2.03502 316.961 -106.88 1.22326 335.604 -111.276 -0.0304608 355.115 -114.28 -1.59607 102.764 -39.5195 2.15516 119.436 -47.5824 0.476314 135.565 -55.7815 -0.490236 151.089 -63.8142 -1.0078 165.95 -71.4416 -1.24544 180.104 -78.4732 -1.31167 193.527 -84.7583 -1.27357 206.219 -90.1808 -1.16832 227.311 -102.734 0.399988 247.226 -114.327 1.29443 266.094 -124.755 1.59639 284.089 -133.878 1.40028 301.436 -141.615 0.809533 318.433 -147.932 -0.0664801 335.47 -152.841 -1.11447 92.429 -50.266 1.39381 108.202 -60.1959 0.291501 123.479 -70.0871 -0.348071 138.155 -79.6916 -0.690524 152.136 -88.8059 -0.844861 165.345 -97.2639 -0.882591 177.73 -104.934 -0.848833 189.262 -111.718 -0.769276 210.547 -127.057 0.251738 230.405 -141.137 0.826262 248.897 -153.809 1.0113 266.127 -164.985 0.874066 282.251 -174.636 0.488921 297.486 -182.781 -0.0650212 312.123 -189.495 -0.705543 82.0077 -60.9261 0.684537 96.6289 -72.5943 0.138177 110.833 -84.0752 -0.180283 124.477 -95.1606 -0.350803 137.438 -105.674 -0.426801 149.612 -115.47 -0.443786 160.92 -124.434 -0.424441 171.312 -132.481 -0.381887 192.051 -150.17 0.121324 211.233 -166.394 0.402109 228.86 -181.053 0.489806 244.976 -194.103 0.419296 259.681 -205.554 0.229348 273.128 -215.472 -0.0387054 285.539 -223.978 -0.341904 71.5061 -71.5061 -7.26086e-13 84.7488 -84.7488 -6.82787e-13 97.6783 -97.6783 -6.25722e-13 110.12 -110.12 -5.2669e-13 121.921 -121.921 -5.17808e-13 132.957 -132.957 -4.1922e-13 143.13 -143.13 -4.29878e-13 152.371 -152.371 -3.83693e-13 171.887 -171.887 -4.9738e-14 189.836 -189.836 1.27898e-13 206.165 -206.165 2.70006e-13 220.874 -220.874 3.41061e-13 234.012 -234.012 3.76588e-13 245.688 -245.688 3.90799e-13 256.068 -256.068 4.12082e-13 60.9261 -82.0077 -0.684537 72.5943 -96.6289 -0.138177 84.0752 -110.833 0.180283 95.1606 -124.477 0.350803 105.674 -137.438 0.426801 115.47 -149.612 0.443786 124.434 -160.92 0.424441 132.481 -171.312 0.381887 150.17 -192.051 -0.121324 166.394 -211.233 -0.402109 181.053 -228.86 -0.489806 194.103 -244.976 -0.419296 205.554 -259.681 -0.229348 215.472 -273.128 0.0387054 223.978 -285.539 0.341904 50.266 -92.429 -1.39381 60.1959 -108.202 -0.291501 70.0871 -123.479 0.348071 79.6916 -138.155 0.690524 88.8059 -152.136 0.844861 97.2639 -165.345 0.882591 104.934 -177.73 0.848833 111.718 -189.262 0.769276 127.057 -210.547 -0.251738 141.137 -230.405 -0.826262 153.809 -248.897 -1.0113 164.985 -266.127 -0.874066 174.636 -282.251 -0.488921 182.781 -297.486 0.0650212 189.495 -312.123 0.705543 39.5195 -102.764 -2.15516 47.5824 -119.436 -0.476314 55.7815 -135.565 0.490236 63.8142 -151.089 1.0078 71.4416 -165.95 1.24544 78.4732 -180.104 1.31167 84.7583 -193.527 1.27357 90.1808 -206.219 1.16832 102.734 -227.311 -0.399988 114.327 -247.226 -1.29443 124.755 -266.094 -1.59639 133.878 -284.089 -1.40028 141.615 -301.436 -0.809533 147.932 -318.433 0.0664801 152.841 -335.47 1.11447 28.6752 -113.001 -3.00176 34.7807 -130.294 -0.711559 41.2293 -147.043 0.59229 47.6376 -163.233 1.29066 53.7175 -178.845 1.61976 59.2452 -193.871 1.72675 64.0448 -208.323 1.69994 67.978 -222.237 1.58649 77.4015 -242.341 -0.574148 86.2474 -261.638 -1.8285 94.2374 -280.331 -2.27752 101.165 -298.669 -2.03502 106.88 -316.961 -1.22326 111.276 -335.604 0.0304608 114.28 -355.115 1.59607 17.7146 -123.122 -3.97728 21.8146 -140.738 -1.02071 26.5036 -157.875 0.637416 31.277 -174.562 1.52606 35.7768 -190.818 1.95897 39.7335 -206.675 2.12423 42.937 -222.185 2.13061 45.2179 -237.426 2.03335 51.2625 -255.701 -0.781336 57.1865 -273.651 -2.45042 62.6139 -291.549 -3.0882 67.2492 -309.716 -2.81731 70.8539 -328.554 -1.76429 73.2251 -348.572 -0.0558859 74.1741 -370.441 2.18404 6.60785 -133.097 -5.14351 8.70347 -150.723 -1.43468 11.6794 -168.03 0.605088 14.8521 -185.072 1.69926 17.7664 -201.903 2.25391 20.092 -218.594 2.50142 21.5723 -235.239 2.57016 21.9951 -251.967 2.52139 24.5061 -267.524 -1.02747 27.4223 -283.345 -3.18249 30.2399 -299.748 -4.06386 32.5514 -317.117 -3.78938 34.0074 -335.935 -2.47014 34.284 -356.829 -0.205713 33.0472 -380.641 2.92165 -4.69323 -142.877 -6.59412 -4.54022 -160.196 -1.9966 -3.16653 -177.485 0.468933 -1.51379 -194.789 1.79283 -0.166117 -212.18 2.49491 0.468488 -229.763 2.85669 0.073576 -247.679 3.0257 -1.62194 -266.116 3.06714 -2.70508 -278.021 -1.31708 -2.79 -290.87 -4.048 -2.53899 -304.985 -5.24316 -2.49338 -320.78 -4.99844 -3.12953 -338.793 -3.38329 -4.90885 -359.753 -0.432566 -8.33175 -384.661 3.86627 163.035 -8.68416 8.56432 180.84 -0.442425 2.66905 199.002 2.46855 -0.172208 217.614 2.74103 -1.50161 236.773 1.89237 -2.10269 256.587 0.889384 -2.39145 277.169 0.420526 -2.58435 298.649 1.02933 -2.778 311.398 1.87557 2.22921 325.054 2.21615 5.37495 339.731 2.61395 6.79516 355.563 3.54277 6.60101 372.706 5.42727 4.88594 391.343 8.67252 1.73042 411.695 13.688 -2.79453 148.72 -16.419 6.77034 167.995 -13.4445 1.97215 186.856 -14.0345 -0.468498 205.567 -16.4231 -1.67611 224.317 -19.5517 -2.25529 243.272 -22.7192 -2.54013 262.593 -25.4188 -2.70974 282.457 -27.252 -2.84662 297.366 -29.408 1.20996 312.999 -31.7266 3.73616 329.626 -33.7738 4.87075 347.576 -35.1819 4.73964 367.255 -35.6157 3.45753 389.188 -34.7441 1.12796 414.069 -32.2087 -2.15795 135.285 -25.0348 5.29383 155.238 -26.4922 1.44412 174.367 -30.2534 -0.597633 192.967 -35.1485 -1.65156 211.249 -40.442 -2.17873 229.391 -45.6341 -2.44233 247.57 -50.3635 -2.5872 265.982 -54.3523 -2.68201 282.289 -59.318 0.541991 299.103 -64.2037 2.53386 316.801 -68.7172 3.42369 335.853 -72.627 3.33654 356.87 -75.7396 2.39127 380.686 -77.8808 0.698578 408.475 -78.8731 -1.64192 122.5 -34.2992 4.03154 142.516 -39.5458 1.03573 161.526 -46.1719 -0.604515 179.791 -53.4009 -1.47842 197.499 -60.7272 -1.92889 214.816 -67.804 -2.15684 231.912 -74.3852 -2.27525 248.981 -80.2934 -2.33911 266.04 -87.8432 0.142513 283.383 -95.147 1.66535 301.445 -102.057 2.34231 320.789 -108.494 2.28583 342.172 -114.443 1.60553 366.668 -119.953 0.405818 395.868 -125.154 -1.21692 110.218 -44.0676 2.91471 129.793 -52.5787 0.711587 148.33 -61.7767 -0.523205 166.025 -71.1518 -1.19636 183.024 -80.3645 -1.55076 199.462 -89.1849 -1.73161 215.487 -97.4593 -1.82197 231.279 -105.093 -1.86312 248.533 -114.976 -0.056677 265.862 -124.509 1.04582 283.721 -133.683 1.53392 302.713 -142.576 1.4988 323.677 -151.368 1.03082 347.836 -160.379 0.217405 377.077 -170.136 -0.858898 98.3493 -54.2491 1.89438 117.044 -65.5739 0.444822 134.777 -77.0572 -0.380747 151.665 -88.377 -0.837863 167.798 -99.3179 -1.08193 183.272 -109.741 -1.20719 198.203 -119.566 -1.26819 212.746 -128.769 -1.2925 229.711 -140.711 -0.113539 246.571 -152.254 0.60314 263.765 -163.517 0.919471 281.891 -174.727 0.89936 301.804 -186.261 0.606797 324.777 -198.719 0.104358 352.827 -213.076 -0.547877 86.8381 -64.788 0.933143 104.254 -78.5209 0.21382 120.87 -92.0043 -0.199708 136.712 -105.056 -0.430753 151.811 -117.558 -0.555112 166.213 -129.442 -0.619137 179.998 -140.693 -0.649875 193.288 -151.341 -0.661103 209.537 -165.048 -0.0790824 225.539 -178.356 0.273871 241.687 -191.499 0.42937 258.535 -204.837 0.42028 276.889 -218.926 0.279694 297.972 -234.631 0.0401726 323.751 -253.352 -0.266697 75.6542 -75.6542 -1.59475e-12 91.4144 -91.4144 -1.3153e-12 106.611 -106.611 -1.13931e-12 121.173 -121.173 -8.66862e-13 135.061 -135.061 -7.43849e-13 148.27 -148.27 -5.92415e-13 160.835 -160.835 -4.6807e-13 172.836 -172.836 -3.96128e-13 187.987 -187.987 -7.99361e-14 202.792 -202.792 2.30926e-13 217.575 -217.575 4.03233e-13 232.808 -232.808 5.04485e-13 249.194 -249.194 5.1692e-13 267.813 -267.813 4.84057e-13 290.417 -290.417 3.63885e-13 64.788 -86.8381 -0.933143 78.5209 -104.254 -0.21382 92.0043 -120.87 0.199708 105.056 -136.712 0.430753 117.558 -151.811 0.555112 129.442 -166.213 0.619137 140.693 -179.998 0.649875 151.341 -193.288 0.661103 165.048 -209.537 0.0790824 178.356 -225.539 -0.273871 191.499 -241.687 -0.42937 204.837 -258.535 -0.42028 218.926 -276.889 -0.279694 234.631 -297.972 -0.0401726 253.352 -323.751 0.266697 54.2491 -98.3493 -1.89438 65.5739 -117.044 -0.444822 77.0572 -134.777 0.380747 88.377 -151.665 0.837863 99.3179 -167.798 1.08193 109.741 -183.272 1.20719 119.566 -198.203 1.26819 128.769 -212.746 1.2925 140.711 -229.711 0.113539 152.254 -246.571 -0.60314 163.517 -263.765 -0.919471 174.727 -281.891 -0.89936 186.261 -301.804 -0.606797 198.719 -324.777 -0.104358 213.076 -352.827 0.547877 44.0676 -110.218 -2.91471 52.5787 -129.793 -0.711587 61.7767 -148.33 0.523205 71.1518 -166.025 1.19636 80.3645 -183.024 1.55076 89.1849 -199.462 1.73161 97.4593 -215.487 1.82197 105.093 -231.279 1.86312 114.976 -248.533 0.056677 124.509 -265.862 -1.04582 133.683 -283.721 -1.53392 142.576 -302.713 -1.4988 151.368 -323.677 -1.03082 160.379 -347.836 -0.217405 170.136 -377.077 0.858898 34.2992 -122.5 -4.03154 39.5458 -142.516 -1.03573 46.1719 -161.526 0.604515 53.4009 -179.791 1.47842 60.7272 -197.499 1.92889 67.804 -214.816 2.15684 74.3852 -231.912 2.27525 80.2934 -248.981 2.33911 87.8432 -266.04 -0.142513 95.147 -283.383 -1.66535 102.057 -301.445 -2.34231 108.494 -320.789 -2.28583 114.443 -342.172 -1.60553 119.953 -366.668 -0.405818 125.154 -395.868 1.21692 25.0348 -135.285 -5.29383 26.4922 -155.238 -1.44412 30.2534 -174.367 0.597633 35.1485 -192.967 1.65156 40.442 -211.249 2.17873 45.6341 -229.391 2.44233 50.3635 -247.57 2.5872 54.3523 -265.982 2.68201 59.318 -282.289 -0.541991 64.2037 -299.103 -2.53386 68.7172 -316.801 -3.42369 72.627 -335.853 -3.33654 75.7396 -356.87 -2.39127 77.8808 -380.686 -0.698578 78.8731 -408.475 1.64192 16.419 -148.72 -6.77034 13.4445 -167.995 -1.97215 14.0345 -186.856 0.468498 16.4231 -205.567 1.67611 19.5517 -224.317 2.25529 22.7192 -243.272 2.54013 25.4188 -262.593 2.70974 27.252 -282.457 2.84662 29.408 -297.366 -1.20996 31.7266 -312.999 -3.73616 33.7738 -329.626 -4.87075 35.1819 -347.576 -4.73964 35.6157 -367.255 -3.45753 34.7441 -389.188 -1.12796 32.2087 -414.069 2.15795 8.68416 -163.035 -8.56432 0.442425 -180.84 -2.66905 -2.46855 -199.002 0.172208 -2.74103 -217.614 1.50161 -1.89237 -236.773 2.10269 -0.889384 -256.587 2.39145 -0.420526 -277.169 2.58435 -1.02933 -298.649 2.778 -1.87557 -311.398 -2.22921 -2.21615 -325.054 -5.37495 -2.61395 -339.731 -6.79516 -3.54277 -355.563 -6.60101 -5.42727 -372.706 -4.88594 -8.67252 -391.343 -1.73042 -13.688 -411.695 2.79453 170.7 -9.6552 10.3989 191.257 -1.05842 3.0998 212.056 1.78998 -0.347466 233.166 1.90403 -1.91002 254.653 0.952303 -2.56193 276.592 -0.0125681 -2.80827 299.057 -0.246943 -2.90356 322.132 0.829702 -2.95345 336.876 1.47159 2.70515 352.244 1.62762 6.16844 368.304 1.97109 7.62902 385.131 3.05833 7.2619 402.811 5.37386 5.2331 421.437 9.3614 1.70599 441.115 15.4468 -3.1536 155.619 -17.5802 8.23454 177.679 -14.7342 2.30015 199.17 -15.7099 -0.658395 220.346 -18.5215 -2.07769 241.379 -21.9959 -2.71162 262.405 -25.3622 -2.96748 283.554 -28.0664 -3.05733 304.964 -29.6764 -3.07287 322.152 -32.3732 1.51939 339.719 -35.1336 4.30336 357.895 -37.4317 5.46905 376.942 -38.829 5.19975 397.175 -38.9366 3.6744 418.984 -37.3845 1.06917 442.86 -33.7919 -2.44129 141.488 -26.4555 6.44669 164.198 -28.4603 1.69041 185.912 -32.9123 -0.782723 206.923 -38.488 -2.02162 227.422 -44.3641 -2.60251 247.566 -49.984 -2.84739 267.503 -54.9455 -2.92866 287.395 -58.9406 -2.92366 306.176 -64.7897 0.730526 325.078 -70.3879 2.92676 344.438 -75.3656 3.83977 364.658 -79.4279 3.64436 386.244 -82.3264 2.51445 409.856 -83.8354 0.622365 436.388 -83.7257 -1.86139 128.06 -36.0342 4.91396 150.758 -42.1965 1.21609 172.277 -49.8001 -0.76954 192.873 -57.958 -1.79711 212.716 -66.0961 -2.29597 231.949 -73.8202 -2.5126 250.717 -80.8492 -2.58208 269.185 -86.9779 -2.56693 288.829 -95.7483 0.248144 308.345 -104.038 1.92753 328.128 -111.632 2.62113 348.673 -118.395 2.48244 370.625 -124.248 1.66619 394.86 -129.169 0.32679 422.625 -133.187 -1.38192 115.181 -46.1617 3.55498 137.322 -55.9161 0.837575 158.263 -66.3592 -0.65658 178.186 -76.8997 -1.44833 197.217 -87.1435 -1.84223 215.468 -96.8204 -2.01678 233.064 -105.746 -2.0716 250.159 -113.799 -2.05398 270.033 -125.223 -0.00370415 289.554 -136.007 1.21212 309.138 -146.084 1.71154 329.325 -155.477 1.61728 350.838 -164.296 1.05415 374.693 -172.759 0.14751 402.387 -181.231 -0.976646 102.753 -56.7404 2.31152 123.865 -69.6015 0.524545 143.869 -82.5778 -0.474138 162.858 -95.2858 -1.01193 180.901 -107.465 -1.28387 198.069 -118.941 -1.40597 214.456 -129.607 -1.44384 230.191 -139.414 -1.42921 249.738 -153.193 -0.0906757 268.747 -166.234 0.699602 287.621 -178.608 1.02291 306.898 -190.486 0.96456 327.319 -202.167 0.611796 349.948 -214.12 0.0526763 376.399 -227.087 -0.623574 90.7169 -67.7104 1.13891 110.372 -83.242 0.25243 129.098 -98.446 -0.247726 146.894 -113.093 -0.51959 163.761 -127.026 -0.65835 179.722 -140.148 -0.721119 194.831 -152.415 -0.740461 209.187 -163.836 -0.732289 227.913 -179.638 -0.0713755 245.967 -194.667 0.31779 263.707 -209.109 0.476604 281.626 -223.271 0.448747 300.423 -237.62 0.279026 321.124 -252.862 0.0128013 345.303 -270.098 -0.303717 79.0394 -79.0394 -1.88269e-12 96.8323 -96.8323 -1.52724e-12 113.955 -113.955 -1.24911e-12 130.301 -130.301 -1.02185e-12 145.798 -145.798 -8.31335e-13 160.413 -160.413 -7.31859e-13 174.156 -174.156 -5.84421e-13 187.083 -187.083 -5.22249e-13 204.548 -204.548 -1.06581e-14 221.26 -221.26 3.37508e-13 237.504 -237.504 5.71987e-13 253.697 -253.697 6.60805e-13 270.443 -270.443 7.0699e-13 288.641 -288.641 6.39488e-13 309.686 -309.686 4.83232e-13 67.7104 -90.7169 -1.13891 83.242 -110.372 -0.25243 98.446 -129.098 0.247726 113.093 -146.894 0.51959 127.026 -163.761 0.65835 140.148 -179.722 0.721119 152.415 -194.831 0.740461 163.836 -209.187 0.732289 179.638 -227.913 0.0713755 194.667 -245.967 -0.31779 209.109 -263.707 -0.476604 223.271 -281.626 -0.448747 237.62 -300.423 -0.279026 252.862 -321.124 -0.0128013 270.098 -345.303 0.303717 56.7404 -102.753 -2.31152 69.6015 -123.865 -0.524545 82.5778 -143.869 0.474138 95.2858 -162.858 1.01193 107.465 -180.901 1.28387 118.941 -198.069 1.40597 129.607 -214.456 1.44384 139.414 -230.191 1.42921 153.193 -249.738 0.0906757 166.234 -268.747 -0.699602 178.608 -287.621 -1.02291 190.486 -306.898 -0.96456 202.167 -327.319 -0.611796 214.12 -349.948 -0.0526763 227.087 -376.399 0.623574 46.1617 -115.181 -3.55498 55.9161 -137.322 -0.837575 66.3592 -158.263 0.65658 76.8997 -178.186 1.44833 87.1435 -197.217 1.84223 96.8204 -215.468 2.01678 105.746 -233.064 2.0716 113.799 -250.159 2.05398 125.223 -270.033 0.00370415 136.007 -289.554 -1.21212 146.084 -309.138 -1.71154 155.477 -329.325 -1.61728 164.296 -350.838 -1.05415 172.759 -374.693 -0.14751 181.231 -402.387 0.976646 36.0342 -128.06 -4.91396 42.1965 -150.758 -1.21609 49.8001 -172.277 0.76954 57.958 -192.873 1.79711 66.0961 -212.716 2.29597 73.8202 -231.949 2.5126 80.8492 -250.717 2.58208 86.9779 -269.185 2.56693 95.7483 -288.829 -0.248144 104.038 -308.345 -1.92753 111.632 -328.128 -2.62113 118.395 -348.673 -2.48244 124.248 -370.625 -1.66619 129.169 -394.86 -0.32679 133.187 -422.625 1.38192 26.4555 -141.488 -6.44669 28.4603 -164.198 -1.69041 32.9123 -185.912 0.782723 38.488 -206.923 2.02162 44.3641 -227.422 2.60251 49.984 -247.566 2.84739 54.9455 -267.503 2.92866 58.9406 -287.395 2.92366 64.7897 -306.176 -0.730526 70.3879 -325.078 -2.92676 75.3656 -344.438 -3.83977 79.4279 -364.658 -3.64436 82.3264 -386.244 -2.51445 83.8354 -409.856 -0.622365 83.7257 -436.388 1.86139 17.5802 -155.619 -8.23454 14.7342 -177.679 -2.30015 15.7099 -199.17 0.658395 18.5215 -220.346 2.07769 21.9959 -241.379 2.71162 25.3622 -262.405 2.96748 28.0664 -283.554 3.05733 29.6764 -304.964 3.07287 32.3732 -322.152 -1.51939 35.1336 -339.719 -4.30336 37.4317 -357.895 -5.46905 38.829 -376.942 -5.19975 38.9366 -397.175 -3.6744 37.3845 -418.984 -1.06917 33.7919 -442.86 2.44129 9.6552 -170.7 -10.3989 1.05842 -191.257 -3.0998 -1.78998 -212.056 0.347466 -1.90403 -233.166 1.91002 -0.952303 -254.653 2.56193 0.0125681 -276.592 2.80827 0.246943 -299.057 2.90356 -0.829702 -322.132 2.95345 -1.47159 -336.876 -2.70515 -1.62762 -352.244 -6.16844 -1.97109 -368.304 -7.62902 -3.05833 -385.131 -7.2619 -5.37386 -402.811 -5.2331 -9.3614 -421.437 -1.70599 -15.4468 -441.115 3.1536 177.464 -9.72497 12.1992 200.443 -0.701781 3.47612 223.55 2.11622 -0.55529 246.819 2.08319 -2.32297 270.288 1.01995 -2.99987 293.994 0.0610556 -3.18144 317.976 -0.000681797 -3.15996 342.274 1.44486 -3.04995 358.533 1.84905 3.21249 375.1