<?xml version="1.0"?> 
<VTKFile type="StructuredGrid" version="0.1"> 
<StructuredGrid WholeExtent="0 14 0 14 0 29"> 
<Piece Extent="0 14 0 14 0 29"> 
<PointData>
<DataArray type="Float32" Name="hfield" format="ascii" NumberOfComponents="3"> 
3798.96 -7.63976e-11 4.38035e-10 3580.67 324.424 4.13337e-10 3354.22 640.684 3.88525e-10 3119.61 948.779 3.63826e-10 2876.83 1248.71 3.39128e-10 2625.89 1540.47 3.14458e-10 2366.78 1824.08 2.89731e-10 2099.51 2099.51 2.65004e-10 1824.08 2366.78 2.38686e-10 1540.47 2625.89 2.12424e-10 1248.71 2876.83 1.86162e-10 948.779 3119.61 1.59787e-10 640.684 3354.22 1.33468e-10 324.424 3580.67 1.06979e-10 -2.29193e-10 3798.96 8.08313e-11 3580.67 -324.424 4.03451e-10 3347.23 -9.15476e-11 3.77473e-10 3106.78 317.426 3.50984e-10 2859.34 627.854 3.24701e-10 2604.9 931.283 2.98545e-10 2343.46 1227.71 2.72219e-10 2075.02 1517.15 2.4595e-10 1799.58 1799.58 2.19738e-10 1517.15 2075.02 1.9397e-10 1227.71 2343.46 1.68145e-10 931.283 2604.9 1.42277e-10 627.854 2859.34 1.16608e-10 317.426 3106.78 9.07692e-11 -2.19529e-10 3347.23 6.48162e-11 -324.424 3580.67 3.92043e-11 3354.22 -640.684 3.69208e-10 3106.78 -317.426 3.41418e-10 2853.51 -9.5838e-11 3.13585e-10 2594.4 311.594 2.85831e-10 2329.46 617.356 2.57963e-10 2058.69 917.287 2.30095e-10 1782.09 1211.39 2.02283e-10 1499.65 1499.65 1.74472e-10 1211.39 1782.09 1.49183e-10 917.287 2058.69 1.23923e-10 617.356 2329.46 9.86195e-11 311.594 2594.4 7.32594e-11 -2.19416e-10 2853.51 4.79563e-11 -317.426 3106.78 2.26531e-11 -640.684 3354.22 -2.42269e-12 3119.61 -948.779 3.34851e-10 2859.34 -627.854 3.0564e-10 2594.4 -311.594 2.76073e-10 2324.79 -9.95897e-11 2.46719e-10 2050.52 306.929 2.17409e-10 1771.59 609.192 1.87998e-10 1487.99 906.789 1.5856e-10 1199.72 1199.72 1.29149e-10 906.789 1487.99 1.04411e-10 609.192 1771.59 7.96152e-11 306.929 2050.52 5.48481e-11 -2.18733e-10 2324.79 3.00242e-11 -311.594 2594.4 5.20024e-12 -627.854 2859.34 -1.951e-11 -948.779 3119.61 -4.41634e-11 2876.83 -1248.71 3.00494e-10 2604.9 -931.283 2.69662e-10 2329.46 -617.356 2.38617e-10 2050.52 -306.929 2.07665e-10 1768.09 -1.04137e-10 1.76727e-10 1482.16 303.429 1.45732e-10 1192.72 603.36 1.14836e-10 899.791 899.791 8.38834e-11 603.36 1192.72 5.96737e-11 303.429 1482.16 3.53361e-11 -2.2078e-10 1768.09 1.11052e-11 -306.929 2050.52 -1.31543e-11 -617.356 2329.46 -3.74421e-11 -931.283 2604.9 -6.16731e-11 -1248.71 2876.83 -8.59041e-11 2625.89 -1540.47 2.66251e-10 2343.46 -1227.71 2.33713e-10 2058.69 -917.287 2.01197e-10 1771.59 -609.192 1.68603e-10 1482.16 -303.429 1.36144e-10 1190.39 -1.09594e-10 1.03635e-10 896.292 301.097 7.10979e-11 599.861 599.861 3.8589e-11 301.097 896.292 1.48515e-11 -2.23054e-10 1190.39 -8.88604e-12 -303.429 1482.16 -3.26378e-11 -609.192 1771.59 -5.63611e-11 -917.287 2058.69 -8.01129e-11 -1227.71 2343.46 -1.03865e-10 -1540.47 2625.89 -1.27616e-10 2366.78 -1824.08 2.31837e-10 2075.02 -1517.15 1.97866e-10 1782.09 -1211.39 1.63667e-10 1487.99 -906.789 1.29659e-10 1192.72 -603.36 9.55687e-11 896.292 -301.097 6.14679e-11 598.694 -1.18234e-10 2.73884e-11 299.93 299.93 -6.70532e-12 -2.22599e-10 598.694 -2.9921e-11 -301.097 896.292 -5.31082e-11 -603.36 1192.72 -7.63736e-11 -906.789 1487.99 -9.95964e-11 -1211.39 1782.09 -1.22826e-10 -1517.15 2075.02 -1.46113e-10 -1824.08 2366.78 -1.69187e-10 2099.51 -2099.51 1.97537e-10 1799.58 -1799.58 1.61861e-10 1499.65 -1499.65 1.26242e-10 1199.72 -1199.72 9.05667e-11 899.791 -899.791 5.4948e-11 599.861 -599.861 1.93292e-11 299.93 -299.93 -1.63322e-11 -2.1646e-10 -1.33696e-10 -5.19801e-11 -299.93 299.93 -7.46935e-11 -599.861 599.861 -9.73873e-11 -899.791 899.791 -1.20124e-10 -1199.72 1199.72 -1.42803e-10 -1499.65 1499.65 -1.6554e-10 -1799.58 1799.58 -1.88276e-10 -2099.51 2099.51 -2.10899e-10 1824.08 -2366.78 1.51175e-10 1517.15 -2075.02 1.17772e-10 1211.39 -1782.09 8.44267e-11 906.789 -1487.99 5.11484e-11 603.36 -1192.72 1.77565e-11 301.097 -896.292 -1.55396e-11 -2.08956e-10 -598.694 -4.88782e-11 -299.93 -299.93 -8.2224e-11 -598.694 -1.44041e-10 -1.05658e-10 -896.292 301.097 -1.29091e-10 -1192.72 603.36 -1.5249e-10 -1487.99 906.789 -1.75945e-10 -1782.09 1211.39 -1.99435e-10 -2075.02 1517.15 -2.22855e-10 -2366.78 1824.08 -2.46274e-10 1540.47 -2625.89 1.04706e-10 1227.71 -2343.46 7.3701e-11 917.287 -2058.69 4.26965e-11 609.192 -1771.59 1.16245e-11 303.429 -1482.16 -1.9341e-11 -2.07365e-10 -1190.39 -5.04343e-11 -301.097 -896.292 -8.14566e-11 -599.861 -599.861 -1.12436e-10 -896.292 -301.097 -1.36609e-10 -1190.39 -1.46429e-10 -1.60767e-10 -1482.16 303.429 -1.84954e-10 -1771.59 609.192 -2.09127e-10 -2058.69 917.287 -2.33257e-10 -2343.46 1227.71 -2.57415e-10 -2625.89 1540.47 -2.81574e-10 1248.71 -2876.83 5.82645e-11 931.283 -2604.9 2.96119e-11 617.356 -2329.46 9.45022e-13 306.929 -2050.52 -2.78249e-11 -2.10093e-10 -1768.09 -5.6545e-11 -303.429 -1482.16 -8.52367e-11 -603.36 -1192.72 -1.13999e-10 -899.791 -899.791 -1.42677e-10 -1192.72 -603.36 -1.67589e-10 -1482.16 -303.429 -1.92486e-10 -1768.09 -1.45519e-10 -2.17369e-10 -2050.52 306.929 -2.42238e-10 -2329.46 617.356 -2.6705e-10 -2604.9 931.283 -2.92061e-10 -2876.83 1248.71 -3.16902e-10 948.779 -3119.61 1.18234e-11 627.854 -2859.34 -1.4488e-11 311.594 -2594.4 -4.08704e-11 -2.10548e-10 -2324.79 -6.72742e-11 -306.929 -2050.52 -9.3678e-11 -609.192 -1771.59 -1.20139e-10 -906.789 -1487.99 -1.46514e-10 -1199.72 -1199.72 -1.72918e-10 -1487.99 -906.789 -1.98568e-10 -1771.59 -609.192 -2.2419e-10 -2050.52 -306.929 -2.49798e-10 -2324.79 -1.4461e-10 -2.75406e-10 -2594.4 311.594 -3.00986e-10 -2859.34 627.854 -3.26565e-10 -3119.61 948.779 -3.52259e-10 640.684 -3354.22 -3.43334e-11 317.426 -3106.78 -5.84564e-11 -2.09411e-10 -2853.51 -8.26361e-11 -311.594 -2594.4 -1.06752e-10 -617.356 -2329.46 -1.30825e-10 -917.287 -2058.69 -1.5487e-10 -1211.39 -1782.09 -1.79057e-10 -1499.65 -1499.65 -2.03158e-10 -1782.09 -1211.39 -2.29477e-10 -2058.69 -917.287 -2.55852e-10 -2329.46 -617.356 -2.82228e-10 -2594.4 -311.594 -3.08603e-10 -2853.51 -1.45519e-10 -3.34978e-10 -3106.78 317.426 -3.6141e-10 -3354.22 640.684 -3.87558e-10 324.424 -3580.67 -8.08313e-11 -1.91562e-10 -3347.23 -1.02773e-10 -317.426 -3106.78 -1.24459e-10 -627.854 -2859.34 -1.46201e-10 -931.283 -2604.9 -1.68029e-10 -1227.71 -2343.46 -1.898e-10 -1517.15 -2075.02 -2.11571e-10 -1799.58 -1799.58 -2.33456e-10 -2075.02 -1517.15 -2.60457e-10 -2343.46 -1227.71 -2.87542e-10 -2604.9 -931.283 -3.14628e-10 -2859.34 -627.854 -3.41629e-10 -3106.78 -317.426 -3.68459e-10 -3347.23 -1.52795e-10 -3.95744e-10 -3580.67 324.424 -4.22915e-10 -1.65528e-10 -3798.96 -1.27329e-10 -324.424 -3580.67 -1.46983e-10 -640.684 -3354.22 -1.66295e-10 -948.779 -3119.61 -1.85707e-10 -1248.71 -2876.83 -2.05148e-10 -1540.47 -2625.89 -2.24702e-10 -1824.08 -2366.78 -2.44199e-10 -2099.51 -2099.51 -2.6364e-10 -2366.78 -1824.08 -2.91408e-10 -2625.89 -1540.47 -3.19233e-10 -2876.83 -1248.71 -3.47143e-10 -3119.61 -948.779 -3.74826e-10 -3354.22 -640.684 -4.02565e-10 -3580.67 -324.424 -4.30305e-10 -3798.96 -1.69166e-10 -4.58158e-10 3913.59 -5.27507e-11 4.36273e-10 3688.72 334.214 4.07024e-10 3455.44 660.017 3.77916e-10 3213.75 977.408 3.48706e-10 2963.64 1286.39 3.19616e-10 2705.13 1586.96 2.90527e-10 2438.2 1879.12 2.61394e-10 2162.87 2162.87 2.32234e-10 1879.12 2438.2 2.08239e-10 1586.96 2705.13 1.84343e-10 1286.39 2963.64 1.6027e-10 977.408 3213.75 1.36311e-10 660.017 3455.44 1.12323e-10 334.214 3688.72 8.83347e-11 -1.63709e-10 3913.59 6.44036e-11 3688.72 -334.214 4.02847e-10 3448.23 -4.05578e-11 3.73221e-10 3200.53 327.004 3.43494e-10 2945.62 646.799 3.13893e-10 2683.5 959.385 2.84213e-10 2414.17 1264.76 2.54504e-10 2137.63 1562.93 2.24881e-10 1853.88 1853.88 1.95173e-10 1562.93 2137.63 1.70631e-10 1264.76 2414.17 1.46033e-10 959.385 2683.5 1.21503e-10 646.799 2945.62 9.70221e-11 327.004 3200.53 7.2456e-11 -1.83604e-10 3448.23 4.79468e-11 -334.214 3688.72 2.33523e-11 3455.44 -660.017 3.69592e-10 3200.53 -327.004 3.39396e-10 2939.61 -2.87628e-11 3.09176e-10 2672.69 320.997 2.78987e-10 2399.75 635.985 2.48802e-10 2120.81 944.966 2.18524e-10 1835.86 1247.94 1.88339e-10 1544.9 1544.9 1.58097e-10 1247.94 1835.86 1.33031e-10 944.966 2120.81 1.07958e-10 635.985 2399.75 8.27925e-11 320.997 2672.69 5.77336e-11 -2.00771e-10 2939.61 3.26321e-11 -327.004 3200.53 7.50211e-12 -660.017 3455.44 -1.74431e-11 3213.75 -977.408 3.36337e-10 2945.62 -646.799 3.05519e-10 2672.69 -320.997 2.7475e-10 2394.95 -2.22826e-11 2.44067e-10 2112.4 316.19 2.1327e-10 1825.05 627.574 1.8258e-10 1532.89 934.152 1.51797e-10 1235.92 1235.92 1.2105e-10 934.152 1532.89 9.54238e-11 627.574 1825.05 6.97548e-11 316.19 2112.4 4.41248e-11 -2.13731e-10 2394.95 1.84594e-11 -320.997 2672.69 -7.12081e-12 -646.799 2945.62 -3.28289e-11 -977.408 3213.75 -5.84944e-11 2963.64 -1286.39 3.02968e-10 2683.5 -959.385 2.71628e-10 2399.75 -635.985 2.40339e-10 2112.4 -316.19 2.09126e-10 1821.44 -1.86446e-11 1.77838e-10 1526.88 312.585 1.46557e-10 1228.71 621.566 1.15284e-10 926.942 926.942 8.3996e-11 621.566 1228.71 5.77898e-11 312.585 1526.88 3.15941e-11 -2.22144e-10 1821.44 5.4074e-12 -316.19 2112.4 -2.08006e-11 -635.985 2399.75 -4.70158e-11 -959.385 2683.5 -7.31741e-11 -1286.39 2963.64 -9.93893e-11 2705.13 -1586.96 2.69613e-10 2414.17 -1264.76 2.37803e-10 2120.81 -944.966 2.06008e-10 1825.05 -627.574 1.74181e-10 1526.88 -312.585 1.42377e-10 1226.31 -1.77351e-11 1.10567e-10 923.338 310.182 7.8749e-11 617.962 617.962 4.69277e-11 310.182 923.338 2.02019e-11 -2.29875e-10 1226.31 -6.56293e-12 -312.585 1526.88 -3.33171e-11 -627.574 1825.05 -6.00109e-11 -944.966 2120.81 -8.68042e-11 -1264.76 2414.17 -1.13576e-10 -1586.96 2705.13 -1.40298e-10 2438.2 -1879.12 2.36329e-10 2137.63 -1562.93 2.03936e-10 1835.86 -1247.94 1.71599e-10 1532.89 -934.152 1.39302e-10 1228.71 -621.566 1.06908e-10 923.338 -310.182 7.45851e-11 616.76 -1.90994e-11 4.22213e-11 308.981 308.981 9.87361e-12 -2.36014e-10 616.76 -1.7425e-11 -310.182 923.338 -4.47147e-11 -621.566 1228.71 -7.20221e-11 -934.152 1532.89 -9.9342e-11 -1247.94 1835.86 -1.266e-10 -1562.93 2137.63 -1.53914e-10 -1879.12 2438.2 -1.812e-10 2162.87 -2162.87 2.02982e-10 1853.88 -1853.88 1.70124e-10 1544.9 -1544.9 1.37252e-10 1235.92 -1235.92 1.04365e-10 926.942 -926.942 7.14721e-11 617.962 -617.962 3.85858e-11 308.981 -308.981 5.69244e-12 -2.39197e-10 -2.54659e-11 -2.71877e-11 -308.981 308.981 -5.50451e-11 -617.962 617.962 -8.28946e-11 -926.942 926.942 -1.10723e-10 -1235.92 1235.92 -1.38601e-10 -1544.9 1544.9 -1.66436e-10 -1853.88 1853.88 -1.94257e-10 -2162.87 2162.87 -2.22192e-10 1879.12 -2438.2 1.62871e-10 1562.93 -2137.63 1.30211e-10 1247.94 -1835.86 9.75477e-11 934.152 -1532.89 6.48548e-11 621.566 -1228.71 3.21787e-11 310.182 -923.338 -4.86722e-13 -2.40902e-10 -616.76 -3.31575e-11 -308.981 -308.981 -6.58353e-11 -616.76 -2.89901e-11 -9.27001e-11 -923.338 310.182 -1.19583e-10 -1228.71 621.566 -1.46446e-10 -1532.89 934.152 -1.73305e-10 -1835.86 1247.94 -2.00213e-10 -2137.63 1562.93 -2.27086e-10 -2438.2 1879.12 -2.53948e-10 1586.96 -2705.13 1.22725e-10 1264.76 -2414.17 9.0326e-11 944.966 -2120.81 5.78169e-11 627.574 -1825.05 2.53415e-11 312.585 -1526.88 -7.07345e-12 -2.41926e-10 -1226.31 -3.95524e-11 -310.182 -923.338 -7.20206e-11 -617.962 -617.962 -1.04478e-10 -923.338 -310.182 -1.30377e-10 -1226.31 -3.41061e-11 -1.56252e-10 -1526.88 312.585 -1.82172e-10 -1825.05 627.574 -2.08026e-10 -2120.81 944.966 -2.33975e-10 -2414.17 1264.76 -2.59796e-10 -2705.13 1586.96 -2.85695e-10 1286.39 -2963.64 8.26219e-11 959.385 -2683.5 5.03917e-11 635.985 -2399.75 1.81686e-11 316.19 -2112.4 -1.41469e-11 -2.47155e-10 -1821.44 -4.63842e-11 -312.585 -1526.88 -7.865e-11 -621.566 -1228.71 -1.10894e-10 -926.942 -926.942 -1.43118e-10 -1228.71 -621.566 -1.68029e-10 -1526.88 -312.585 -1.92923e-10 -1821.44 -3.81988e-11 -2.17874e-10 -2112.4 316.19 -2.42736e-10 -2399.75 635.985 -2.67676e-10 -2683.5 959.385 -2.92616e-10 -2963.64 1286.39 -3.17527e-10 977.408 -3213.75 4.25189e-11 646.799 -2945.62 1.04539e-11 320.997 -2672.69 -2.15508e-11 -2.53067e-10 -2394.95 -5.3582e-11 -316.19 -2112.4 -8.56417e-11 -627.574 -1825.05 -1.17744e-10 -934.152 -1532.89 -1.49711e-10 -1235.92 -1235.92 -1.81771e-10 -1532.89 -934.152 -2.05713e-10 -1825.05 -627.574 -2.29647e-10 -2112.4 -316.19 -2.53593e-10 -2394.95 -4.27463e-11 -2.77481e-10 -2672.69 320.997 -3.01412e-10 -2945.62 646.799 -3.25414e-10 -3213.75 977.408 -3.49303e-10 660.017 -3455.44 2.38742e-12 327.004 -3200.53 -2.94236e-11 -2.59888e-10 -2939.61 -6.12275e-11 -320.997 -2672.69 -9.30882e-11 -635.985 -2399.75 -1.24942e-10 -944.966 -2120.81 -1.5676e-10 -1247.94 -1835.86 -1.88606e-10 -1544.9 -1544.9 -2.20425e-10 -1835.86 -1247.94 -2.4335e-10 -2120.81 -944.966 -2.66333e-10 -2399.75 -635.985 -2.89248e-10 -2672.69 -320.997 -3.12156e-10 -2939.61 -4.72937e-11 -3.35135e-10 -3200.53 327.004 -3.58085e-10 -3455.44 660.017 -3.81107e-10 334.214 -3688.72 -3.78009e-11 -2.65686e-10 -3448.23 -6.94058e-11 -327.004 -3200.53 -1.00997e-10 -646.799 -2945.62 -1.32559e-10 -959.385 -2683.5 -1.64235e-10 -1264.76 -2414.17 -1.95868e-10 -1562.93 -2137.63 -2.27487e-10 -1853.88 -1853.88 -2.59064e-10 -2137.63 -1562.93 -2.81005e-10 -2414.17 -1264.76 -3.02968e-10 -2683.5 -959.385 -3.24988e-10 -2945.62 -646.799 -3.46901e-10 -3200.53 -327.004 -3.68885e-10 -3448.23 -5.09317e-11 -3.90884e-10 -3688.72 334.214 -4.12797e-10 -2.72848e-10 -3913.59 -7.79323e-11 -334.214 -3688.72 -1.09214e-10 -660.017 -3455.44 -1.40659e-10 -977.408 -3213.75 -1.72051e-10 -1286.39 -2963.64 -2.03499e-10 -1586.96 -2705.13 -2.34934e-10 -1879.12 -2438.2 -2.66311e-10 -2162.87 -2162.87 -2.97689e-10 -2438.2 -1879.12 -3.18671e-10 -2705.13 -1586.96 -3.39725e-10 -2963.64 -1286.39 -3.60743e-10 -3213.75 -977.408 -3.81675e-10 -3455.44 -660.017 -4.02622e-10 -3688.72 -334.214 -4.23739e-10 -3913.59 -5.63887e-11 -4.44629e-10 3992.09 1.20053e-10 4.88512e-10 3762.71 340.917 4.47415e-10 3524.75 673.255 4.06438e-10 3278.21 997.013 3.65219e-10 3023.09 1312.19 3.24221e-10 2759.39 1618.79 2.83165e-10 2487.11 1916.81 2.42068e-10 2206.25 2206.25 2.01027e-10 1916.81 2487.11 1.78865e-10 1618.79 2759.39 1.56746e-10 1312.19 3023.09 1.34548e-10 997.013 3278.21 1.12351e-10 673.255 3524.75 9.00968e-11 340.917 3762.71 6.80416e-11 -2.03727e-10 3992.09 4.58726e-11 3762.71 -340.917 4.39279e-10 3517.39 8.84173e-11 4.01182e-10 3264.72 333.563 3.63078e-10 3004.7 659.772 3.25016e-10 2737.32 978.627 2.86947e-10 2462.59 1290.13 2.48865e-10 2180.51 1594.28 2.10753e-10 1891.07 1891.07 1.72685e-10 1594.28 2180.51 1.48333e-10 1290.13 2462.59 1.2391e-10 978.627 2737.32 9.9601e-11 659.772 3004.7 7.5164e-11 333.563 3264.72 5.08122e-11 -2.12594e-10 3517.39 2.64604e-11 -340.917 3762.71 2.10861e-12 3524.75 -673.255 3.89988e-10 3264.72 -333.563 3.54995e-10 2998.57 7.23048e-11 3.19845e-10 2726.29 327.435 2.84721e-10 2447.88 648.741 2.4966e-10 2163.35 963.919 2.1455e-10 1872.68 1272.97 1.79467e-10 1575.89 1575.89 1.44371e-10 1272.97 1872.68 1.17758e-10 963.919 2163.35 9.11741e-11 648.741 2447.88 6.45826e-11 327.435 2726.29 3.80053e-11 -2.25555e-10 2998.57 1.14138e-11 -333.563 3264.72 -1.5206e-11 -673.255 3524.75 -4.17123e-11 3278.21 -997.013 3.40868e-10 3004.7 -659.772 3.08783e-10 2726.29 -327.435 2.76556e-10 2442.98 7.54881e-11 2.44482e-10 2154.77 322.532 2.1233e-10 1861.65 640.162 1.80249e-10 1563.63 952.888 1.48111e-10 1260.71 1260.71 1.15987e-10 952.888 1563.63 8.72229e-11 640.162 1861.65 5.84237e-11 322.532 2154.77 2.9621e-11 -2.39424e-10 2442.98 8.32471e-13 -327.435 2726.29 -2.79276e-11 -659.772 3004.7 -5.67872e-11 -997.013 3278.21 -8.559e-11 3023.09 -1312.19 2.91606e-10 2737.32 -978.627 2.62444e-10 2447.88 -648.741 2.33292e-10 2154.77 -322.532 2.04208e-10 1857.98 8.41283e-11 1.75057e-10 1557.51 318.855 1.45926e-10 1253.36 634.033 1.16768e-10 945.534 945.534 8.76446e-11 634.033 1253.36 5.6659e-11 318.855 1557.51 2.56379e-11 -2.54204e-10 1857.98 -5.34057e-12 -322.532 2154.77 -3.63404e-11 -648.741 2447.88 -6.7326e-11 -978.627 2737.32 -9.83116e-11 -1312.19 3023.09 -1.29354e-10 2759.39 -1618.79 2.42401e-10 2462.59 -1290.13 2.16211e-10 2163.35 -963.919 1.90042e-10 1861.65 -640.162 1.63902e-10 1557.51 -318.855 1.37741e-10 1250.91 9.50422e-11 1.11604e-10 941.857 316.404 8.54463e-11 630.356 630.356 5.92884e-11 316.404 941.857 2.61005e-11 -2.6489e-10 1250.91 -7.1124e-12 -318.855 1557.51 -4.03093e-11 -640.162 1861.65 -7.35061e-11 -963.919 2163.35 -1.0671e-10 -1290.13 2462.59 -1.39921e-10 -1618.79 2759.39 -1.73132e-10 2487.11 -1916.81 1.93132e-10 2180.51 -1594.28 1.70021e-10 1872.68 -1272.97 1.46753e-10 1563.63 -952.888 1.23619e-10 1253.36 -634.033 1.0046e-10 941.857 -316.404 7.72891e-11 629.131 9.91349e-11 5.41214e-11 315.178 315.178 3.09465e-11 -2.65345e-10 629.131 -4.46434e-12 -316.404 941.857 -3.98574e-11 -634.033 1253.36 -7.52708e-11 -952.888 1563.63 -1.10704e-10 -1272.97 1872.68 -1.4608e-10 -1594.28 2180.51 -1.81502e-10 -1916.81 2487.11 -2.16946e-10 2206.25 -2206.25 1.43912e-10 1891.07 -1891.07 1.23729e-10 1575.89 -1575.89 1.03518e-10 1260.71 -1260.71 8.3349e-11 945.534 -945.534 6.3166e-11 630.356 -630.356 4.2976e-11 315.178 -315.178 2.27895e-11 -2.5284e-10 9.004e-11 2.59892e-12 -315.178 315.178 -3.50189e-11 -630.356 630.356 -7.26325e-11 -945.534 945.534 -1.10257e-10 -1260.71 1260.71 -1.4786e-10 -1575.89 1575.89 -1.85463e-10 -1891.07 1891.07 -2.23066e-10 -2206.25 2206.25 -2.60725e-10 1916.81 -2487.11 1.24054e-10 1594.28 -2180.51 9.98623e-11 1272.97 -1872.68 7.57083e-11 952.888 -1563.63 5.15055e-11 634.033 -1253.36 2.73488e-11 316.404 -941.857 3.16902e-12 -2.4238e-10 -629.131 -2.10214e-11 -315.178 -315.178 -4.51976e-11 -629.131 8.48104e-11 -7.7601e-11 -941.857 316.404 -1.09999e-10 -1253.36 634.033 -1.42421e-10 -1563.63 952.888 -1.74804e-10 -1872.68 1272.97 -2.07223e-10 -2180.51 1594.28 -2.39609e-10 -2487.11 1916.81 -2.71996e-10 1618.79 -2759.39 1.04166e-10 1290.13 -2462.59 7.60565e-11 963.919 -2163.35 4.78515e-11 640.162 -1861.65 1.96962e-11 318.855 -1557.51 -8.46256e-12 -2.48974e-10 -1250.91 -3.66498e-11 -316.404 -941.857 -6.4837e-11 -630.356 -630.356 -9.29958e-11 -941.857 -316.404 -1.20178e-10 -1250.91 8.73115e-11 -1.47363e-10 -1557.51 318.855 -1.74566e-10 -1861.65 640.162 -2.0173e-10 -2163.35 963.919 -2.28937e-10 -2462.59 1290.13 -2.56151e-10 -2759.39 1618.79 -2.83251e-10 1312.19 -3023.09 8.43556e-11 978.627 -2737.32 5.21716e-11 648.741 -2447.88 2.00409e-11 322.532 -2154.77 -1.21432e-11 -2.53749e-10 -1857.98 -4.43237e-11 -318.855 -1557.51 -7.64757e-11 -634.033 -1253.36 -1.08628e-10 -945.534 -945.534 -1.40787e-10 -1253.36 -634.033 -1.6275e-10 -1557.51 -318.855 -1.84734e-10 -1857.98 9.23137e-11 -2.06711e-10 -2154.77 322.532 -2.28653e-10 -2447.88 648.741 -2.50665e-10 -2737.32 978.627 -2.72621e-10 -3023.09 1312.19 -2.94563e-10 997.013 -3278.21 6.44889e-11 659.772 -3004.7 2.83364e-11 327.435 -2726.29 -7.82308e-12 -2.60115e-10 -2442.98 -4.394e-11 -322.532 -2154.77 -8.0135e-11 -640.162 -1861.65 -1.16287e-10 -952.888 -1563.63 -1.52426e-10 -1260.71 -1260.71 -1.88592e-10 -1563.63 -952.888 -2.05358e-10 -1861.65 -640.162 -2.22116e-10 -2154.77 -322.532 -2.38884e-10 -2442.98 9.09495e-11 -2.55625e-10 -2726.29 327.435 -2.72394e-10 -3004.7 659.772 -2.89106e-10 -3278.21 997.013 -3.05846e-10 673.255 -3524.75 4.47926e-11 333.563 -3264.72 4.48352e-12 -2.56023e-10 -2998.57 -3.56195e-11 -327.435 -2726.29 -7.58149e-11 -648.741 -2447.88 -1.15961e-10 -963.919 -2163.35 -1.56092e-10 -1272.97 -1872.68 -1.9628e-10 -1575.89 -1575.89 -2.36412e-10 -1872.68 -1272.97 -2.47915e-10 -2163.35 -963.919 -2.59448e-10 -2447.88 -648.741 -2.71044e-10 -2726.29 -327.435 -2.82512e-10 -2998.57 7.18501e-11 -2.94051e-10 -3264.72 333.563 -3.05675e-10 -3524.75 673.255 -3.17243e-10 340.917 -3762.71 2.48406e-11 -2.3374e-10 -3517.39 -1.94049e-11 -333.563 -3264.72 -6.34728e-11 -659.772 -3004.7 -1.07619e-10 -978.627 -2737.32 -1.51744e-10 -1290.13 -2462.59 -1.95925e-10 -1594.28 -2180.51 -2.4005e-10 -1891.07 -1891.07 -2.84189e-10 -2180.51 -1594.28 -2.90491e-10 -2462.59 -1290.13 -2.96794e-10 -2737.32 -978.627 -3.03174e-10 -3004.7 -659.772 -3.09456e-10 -3264.72 -333.563 -3.15822e-10 -3517.39 2.91038e-11 -3.22188e-10 -3762.71 340.917 -3.28384e-10 -1.83718e-10 -3992.09 4.94538e-12 -340.917 -3762.71 -4.31513e-11 -673.255 -3524.75 -9.1319e-11 -997.013 -3278.21 -1.39408e-10 -1312.19 -3023.09 -1.87583e-10 -1618.79 -2759.39 -2.3573e-10 -1916.81 -2487.11 -2.83848e-10 -2206.25 -2206.25 -3.31994e-10 -2487.11 -1916.81 -3.33102e-10 -2759.39 -1618.79 -3.34225e-10 -3023.09 -1312.19 -3.35291e-10 -3278.21 -997.013 -3.36371e-10 -3524.75 -673.255 -3.37423e-10 -3762.71 -340.917 -3.38616e-10 -3992.09 -4.18368e-11 -3.39753e-10 4032.94 1.46883e-10 4.48253e-10 3801.22 344.406 4.13171e-10 3560.82 680.145 3.78204e-10 3311.76 1007.22 3.43195e-10 3054.03 1325.62 3.08141e-10 2787.63 1635.36 2.73133e-10 2512.56 1936.43 2.38053e-10 2228.83 2228.83 2.03046e-10 1936.43 2512.56 1.75429e-10 1635.36 2787.63 1.47855e-10 1325.62 3054.03 1.2019e-10 1007.22 3311.76 9.25304e-11 680.145 3560.82 6.49472e-11 344.406 3801.22 3.73568e-11 -2.07365e-10 4032.94 9.70957e-12 3801.22 -344.406 4.08815e-10 3553.39 1.6405e-10 3.74932e-10 3298.14 336.977 3.41057e-10 3035.45 666.525 3.07239e-10 2765.34 988.643 2.73437e-10 2487.8 1303.33 2.3958e-10 2202.82 1610.59 2.05746e-10 1910.42 1910.42 1.71927e-10 1610.59 2202.82 1.43707e-10 1303.33 2487.8 1.1548e-10 988.643 2765.34 8.72347e-11 666.525 3035.45 5.90358e-11 336.977 3298.14 3.08405e-11 -2.30187e-10 3553.39 2.5812e-12 -344.406 3801.22 -2.57349e-11 3560.82 -680.145 3.69324e-10 3298.14 -336.977 3.36681e-10 3029.26 1.78318e-10 3.04024e-10 2754.19 330.786 2.7136e-10 2472.94 655.381 2.38746e-10 2185.49 973.785 2.06104e-10 1891.85 1286 1.73442e-10 1592.02 1592.02 1.40811e-10 1286 1891.85 1.11969e-10 973.785 2185.49 8.31159e-11 655.381 2472.94 5.42863e-11 330.786 2754.19 2.5495e-11 -2.45592e-10 3029.26 -3.40833e-12 -336.977 3298.14 -3.22583e-11 -680.145 3560.82 -6.10728e-11 3311.76 -1007.22 3.2983e-10 3035.45 -666.525 2.98397e-10 2754.19 -330.786 2.66962e-10 2467.98 1.86645e-10 2.35501e-10 2176.82 325.833 2.04035e-10 1880.71 646.713 1.72597e-10 1579.64 962.641 1.41141e-10 1273.62 1273.62 1.09689e-10 962.641 1579.64 8.02182e-11 646.713 1880.71 5.07708e-11 325.833 2176.82 2.13389e-11 -2.53124e-10 2467.98 -8.10981e-12 -330.786 2754.19 -3.75559e-11 -666.525 3035.45 -6.70268e-11 -1007.22 3311.76 -9.64427e-11 3054.03 -1325.62 2.90385e-10 2765.34 -988.643 2.60125e-10 2472.94 -655.381 2.29849e-10 2176.82 -325.833 1.99597e-10 1876.99 1.93097e-10 1.69344e-10 1573.45 322.118 1.3907e-10 1266.19 640.522 1.08817e-10 955.211 955.211 7.85596e-11 640.522 1266.19 4.85084e-11 322.118 1573.45 1.84469e-11 -2.56762e-10 1876.99 -1.16014e-11 -325.833 2176.82 -4.16799e-11 -655.381 2472.94 -7.17283e-11 -988.643 2765.34 -1.01781e-10 -1325.62 3054.03 -1.31843e-10 2787.63 -1635.36 2.50903e-10 2487.8 -1303.33 2.21861e-10 2185.49 -973.785 1.92778e-10 1880.71 -646.713 1.63712e-10 1573.45 -322.118 1.34635e-10 1263.71 1.98838e-10 1.05571e-10 951.497 319.642 7.65097e-11 636.808 636.808 4.74412e-11 319.642 951.497 1.67697e-11 -2.58495e-10 1263.71 -1.39053e-11 -322.118 1573.45 -4.45582e-11 -646.713 1880.71 -7.52456e-11 -973.785 2185.49 -1.05906e-10 -1303.33 2487.8 -1.36571e-10 -1635.36 2787.63 -1.67218e-10 2512.56 -1936.43 2.1144e-10 2202.82 -1610.59 1.83569e-10 1891.85 -1286 1.557e-10 1579.64 -962.641 1.27821e-10 1266.19 -640.522 9.99414e-11 951.497 -319.642 7.20644e-11 635.569 2.05659e-10 4.41914e-11 318.404 318.404 1.6318e-11 -2.5733e-10 635.569 -1.49665e-11 -319.642 951.497 -4.62338e-11 -640.522 1266.19 -7.75138e-11 -962.641 1579.64 -1.08794e-10 -1286 1891.85 -1.4007e-10 -1610.59 2202.82 -1.7138e-10 -1936.43 2512.56 -2.02625e-10 2228.83 -2228.83 1.71951e-10 1910.42 -1910.42 1.45274e-10 1592.02 -1592.02 1.18621e-10 1273.62 -1273.62 9.19136e-11 955.211 -955.211 6.52377e-11 636.808 -636.808 3.85511e-11 318.404 -318.404 1.1877e-11 -2.55341e-10 2.13049e-10 -1.48048e-11 -318.404 318.404 -4.66903e-11 -636.808 636.808 -7.85821e-11 -955.211 955.211 -1.10453e-10 -1273.62 1273.62 -1.42348e-10 -1592.02 1592.02 -1.74231e-10 -1910.42 1910.42 -2.0612e-10 -2228.83 2228.83 -2.38012e-10 1936.43 -2512.56 1.4954e-10 1610.59 -2202.82 1.20639e-10 1286 -1891.85 9.17346e-11 962.641 -1579.64 6.28627e-11 640.522 -1266.19 3.39377e-11 319.642 -951.497 5.0473e-12 -2.55397e-10 -635.569 -2.38489e-11 -318.404 -318.404 -5.27569e-11 -635.569 2.18762e-10 -8.27405e-11 -951.497 319.642 -1.12727e-10 -1266.19 640.522 -1.42713e-10 -1579.64 962.641 -1.72709e-10 -1891.85 1286 -2.02719e-10 -2202.82 1610.59 -2.32686e-10 -2512.56 1936.43 -2.62664e-10 1635.36 -2787.63 1.27082e-10 1303.33 -2487.8 9.59889e-11 973.785 -2185.49 6.48879e-11 646.713 -1880.71 3.37774e-11 322.118 -1573.45 2.65654e-12 -2.48718e-10 -1263.71 -2.84608e-11 -319.642 -951.497 -5.95848e-11 -636.808 -636.808 -9.06955e-11 -951.497 -319.642 -1.18792e-10 -1263.71 2.24816e-10 -1.46883e-10 -1573.45 322.118 -1.74975e-10 -1880.71 646.713 -2.03078e-10 -2185.49 973.785 -2.31159e-10 -2487.8 1303.33 -2.59231e-10 -2787.63 1635.36 -2.8734e-10 1325.62 -3054.03 1.04675e-10 988.643 -2765.34 7.1345e-11 655.381 -2472.94 3.80198e-11 325.833 -2176.82 4.67937e-12 -2.37321e-10 -1876.99 -2.86602e-11 -322.118 -1573.45 -6.1978e-11 -640.522 -1266.19 -9.53237e-11 -955.211 -955.211 -1.2865e-10 -1266.19 -640.522 -1.54849e-10 -1573.45 -322.118 -1.81026e-10 -1876.99 2.3033e-10 -2.07234e-10 -2176.82 325.833 -2.33415e-10 -2472.94 655.381 -2.59622e-10 -2765.34 988.643 -2.85812e-10 -3054.03 1325.62 -3.11992e-10 1007.22 -3311.76 8.22276e-11 666.525 -3035.45 4.67084e-11 330.786 -2754.19 1.11369e-11 -2.24588e-10 -2467.98 -2.43876e-11 -325.833 -2176.82 -5.9952e-11 -646.713 -1880.71 -9.54801e-11 -962.641 -1579.64 -1.31043e-10 -1273.62 -1273.62 -1.66596e-10 -1579.64 -962.641 -1.90893e-10 -1880.71 -646.713 -2.15193e-10 -2176.82 -325.833 -2.39501e-10 -2467.98 2.40561e-10 -2.63775e-10 -2754.19 330.786 -2.88072e-10 -3035.45 666.525 -3.12372e-10 -3311.76 1007.22 -3.36662e-10 680.145 -3560.82 5.98277e-11 336.977 -3298.14 2.20608e-11 -2.1052e-10 -3029.26 -1.57074e-11 -330.786 -2754.19 -5.34852e-11 -655.381 -2472.94 -9.12461e-11 -973.785 -2185.49 -1.28994e-10 -1286 -1891.85 -1.66768e-10 -1592.02 -1592.02 -2.04532e-10 -1891.85 -1286 -2.26921e-10 -2185.49 -973.785 -2.49333e-10 -2472.94 -655.381 -2.71742e-10 -2754.19 -330.786 -2.94142e-10 -3029.26 2.58751e-10 -3.16545e-10 -3298.14 336.977 -3.389e-10 -3560.82 680.145 -3.61336e-10 344.406 -3801.22 3.73745e-11 -1.94859e-10 -3553.39 -2.61591e-12 -336.977 -3298.14 -4.25215e-11 -666.525 -3035.45 -8.2542e-11 -988.643 -2765.34 -1.22581e-10 -1303.33 -2487.8 -1.62508e-10 -1610.59 -2202.82 -2.02512e-10 -1910.42 -1910.42 -2.42483e-10 -2202.82 -1610.59 -2.62993e-10 -2487.8 -1303.33 -2.83483e-10 -2765.34 -988.643 -3.03991e-10 -3035.45 -666.525 -3.24521e-10 -3298.14 -336.977 -3.44986e-10 -3553.39 2.8308e-10 -3.65482e-10 -3801.22 344.406 -3.8597e-10 -1.83263e-10 -4032.94 1.50315e-11 -344.406 -3801.22 -2.72009e-11 -680.145 -3560.82 -6.94929e-11 -1007.22 -3311.76 -1.11663e-10 -1325.62 -3054.03 -1.53848e-10 -1635.36 -2787.63 -1.96041e-10 -1936.43 -2512.56 -2.38257e-10 -2228.83 -2228.83 -2.80451e-10 -2512.56 -1936.43 -2.99044e-10 -2787.63 -1635.36 -3.17682e-10 -3054.03 -1325.62 -3.3628e-10 -3311.76 -1007.22 -3.54831e-10 -3560.82 -680.145 -3.73412e-10 -3801.22 -344.406 -3.92106e-10 -4032.94 3.23325e-10 -4.10658e-10 4002.71 2.42835e-10 3.99552e-10 3772.72 341.824 3.69754e-10 3534.13 675.046 3.39934e-10 3286.93 999.666 3.10141e-10 3031.13 1315.68 2.80295e-10 2766.73 1623.1 2.50502e-10 2493.72 1921.91 2.20702e-10 2212.12 2212.12 1.90909e-10 1921.91 2493.72 1.59979e-10 1623.1 2766.73 1.29035e-10 1315.68 3031.13 9.81331e-11 999.666 3286.93 6.72173e-11 675.046 3534.13 3.63372e-11 341.824 3772.72 5.3717e-12 -2.67391e-10 4002.71 -2.55511e-11 3772.72 -341.824 3.69821e-10 3526.75 2.59654e-10 3.39807e-10 3273.41 334.451 3.09861e-10 3012.7 661.528 2.79884e-10 2744.61 981.232 2.49872e-10 2469.15 1293.56 2.19902e-10 2186.31 1598.52 1.89919e-10 1896.1 1896.1 1.59935e-10 1598.52 2186.31 1.29474e-10 1293.56 2469.15 9.90055e-11 981.232 2744.61 6.85534e-11 661.528 3012.7 3.80977e-11 334.451 3273.41 7.58512e-12 -2.71484e-10 3526.75 -2.28564e-11 -341.824 3772.72 -5.32979e-11 3534.13 -675.046 3.40133e-10 3273.41 -334.451 3.09889e-10 3006.55 2.72394e-10 2.79768e-10 2733.55 328.306 2.49585e-10 2454.4 650.468 2.19435e-10 2169.1 966.484 1.89289e-10 1877.67 1276.36 1.59128e-10 1580.08 1580.08 1.28989e-10 1276.36 1877.67 9.89722e-11 966.484 2169.1 6.8973e-11 650.468 2454.4 3.89524e-11 328.306 2733.55 8.93537e-12 -2.75236e-10 3006.55 -2.10746e-11 -334.451 3273.41 -5.10561e-11 -675.046 3534.13 -8.11441e-11 3286.93 -999.666 3.10331e-10 3012.7 -661.528 2.80003e-10 2733.55 -328.306 2.49702e-10 2449.48 2.81716e-10 2.19352e-10 2160.5 323.39 1.89026e-10 1866.61 641.865 1.58693e-10 1567.79 955.424 1.28367e-10 1264.07 1264.07 9.80296e-11 955.424 1567.79 6.84708e-11 641.865 1866.61 3.8912e-11 323.39 2160.5 9.35141e-12 -2.75577e-10 2449.48 -2.02056e-11 -328.306 2733.55 -4.97413e-11 -661.528 3012.7 -7.93197e-11 -999.666 3286.93 -1.08877e-10 3031.13 -1315.68 2.80614e-10 2744.61 -981.232 2.50114e-10 2454.4 -650.468 2.19612e-10 2160.5 -323.39 1.89085e-10 1862.92 2.8956e-10 1.58585e-10 1561.65 319.704 1.28079e-10 1256.69 635.72 9.75834e-11 948.05 948.05 6.7077e-11 635.72 1256.69 3.79685e-11 319.704 1561.65 8.85989e-12 -2.72848e-10 1862.92 -2.0246e-11 -323.39 2160.5 -4.93537e-11 -650.468 2454.4 -7.84578e-11 -981.232 2744.61 -1.07576e-10 -1315.68 3031.13 -1.3668e-10 2766.73 -1623.1 2.50883e-10 2469.15 -1293.56 2.20184e-10 2169.1 -966.484 1.89527e-10 1866.61 -641.865 1.58845e-10 1561.65 -319.704 1.28155e-10 1254.24 2.95813e-10 9.74831e-11 944.364 317.246 6.68003e-11 632.034 632.034 3.61209e-11 317.246 944.364 7.46523e-12 -2.69324e-10 1254.24 -2.11904e-11 -319.704 1561.65 -4.98417e-11 -641.865 1866.61 -7.85018e-11 -966.484 2169.1 -1.07121e-10 -1293.56 2469.15 -1.35797e-10 -1623.1 2766.73 -1.64456e-10 2493.72 -1921.91 2.21152e-10 2186.31 -1598.52 1.90274e-10 1877.67 -1276.36 1.5943e-10 1567.79 -955.424 1.2858e-10 1256.69 -635.72 9.7728e-11 944.364 -317.246 6.68677e-11 630.805 3.01725e-10 3.60216e-11 316.017 316.017 5.16656e-12 -2.64833e-10 630.805 -2.30322e-11 -317.246 944.364 -5.12292e-11 -635.72 1256.69 -7.94329e-