<?xml version="1.0"?> 
<VTKFile type="StructuredGrid" version="0.1"> 
<StructuredGrid WholeExtent="0 14 0 14 0 29"> 
<Piece Extent="0 14 0 14 0 29"> 
<PointData>
<DataArray type="Float32" Name="hfield" format="ascii" NumberOfComponents="3"> 
-229.704 6.82576e-10 -2.37287e-09 -215.712 -18.8222 -2.10409e-09 -201.347 -37.2729 -1.8357e-09 -186.612 -55.3522 -1.56751e-09 -171.505 -73.0599 -1.29921e-09 -156.026 -90.3961 -1.0308e-09 -140.176 -107.361 -7.62384e-10 -123.954 -123.954 -4.94083e-10 -107.361 -140.176 -2.61537e-10 -90.3961 -156.026 -2.92175e-11 -73.0599 -171.505 2.02817e-10 -55.3522 -186.612 4.35648e-10 -37.2729 -201.347 6.67569e-10 -18.8222 -215.712 8.99945e-10 1.72327e-09 -229.704 1.13278e-09 -215.712 18.8222 -2.2319e-09 -201.029 7.95028e-10 -1.97079e-09 -186.028 -18.5038 -1.70957e-09 -170.708 -36.6891 -1.44849e-09 -155.071 -54.5561 -1.18781e-09 -139.114 -72.1046 -9.26788e-10 -122.839 -89.3346 -6.66106e-10 -106.246 -106.246 -4.05083e-10 -89.3346 -122.839 -1.82721e-10 -72.1046 -139.114 3.99828e-11 -54.5561 -155.071 2.62573e-10 -36.6891 -170.708 4.84821e-10 -18.5038 -186.028 7.0798e-10 1.78046e-09 -201.029 9.30228e-10 18.8222 -215.712 1.15316e-09 -201.347 37.2729 -2.09139e-09 -186.028 18.5038 -1.83716e-09 -170.443 8.94495e-10 -1.58373e-09 -154.593 -18.2384 -1.32993e-09 -138.477 -36.2115 -1.07675e-09 -122.096 -53.9192 -8.23118e-10 -105.45 -71.3616 -5.69601e-10 -88.5386 -88.5386 -3.16197e-10 -71.3616 -105.45 -1.03564e-10 -53.9192 -122.096 1.09183e-10 -36.2115 -138.477 3.22214e-10 -18.2384 -154.593 5.34904e-10 1.84431e-09 -170.443 7.47708e-10 18.5038 -186.028 9.60057e-10 37.2729 -201.347 1.17332e-09 -186.612 55.3522 -1.94974e-09 -170.708 36.6891 -1.7038e-09 -154.593 18.2384 -1.45774e-09 -138.265 9.84315e-10 -1.21147e-09 -121.725 -18.0261 -9.65404e-10 -104.973 -35.84 -7.19562e-10 -88.0078 -53.4416 -4.73436e-10 -70.8308 -70.8308 -2.27311e-10 -53.4416 -88.0078 -2.4293e-11 -35.84 -104.973 1.7844e-10 -18.0261 -121.725 3.81401e-10 1.90666e-09 -138.265 5.84532e-10 18.2384 -154.593 7.87209e-10 36.6891 -170.708 9.9034e-10 55.3522 -186.612 1.19302e-09 -171.505 73.0599 -1.80877e-09 -155.071 54.5561 -1.56995e-09 -138.477 36.2115 -1.33167e-09 -121.725 18.0261 -1.09279e-09 -104.813 1.0624e-09 -8.54343e-10 -87.7425 -17.8669 -6.15608e-10 -70.5124 -35.5746 -3.76988e-10 -53.1231 -53.1231 -1.38424e-10 -35.5746 -70.5124 5.4665e-11 -17.8669 -87.7425 2.47868e-10 1.96205e-09 -104.813 4.40815e-10 18.0261 -121.725 6.34047e-10 36.2115 -138.477 8.27278e-10 54.5561 -155.071 1.01994e-09 73.0599 -171.505 1.21317e-09 -156.026 90.3961 -1.66791e-09 -139.114 72.1046 -1.43699e-09 -122.096 53.9192 -1.20534e-09 -104.973 35.84 -9.73942e-10 -87.7425 17.8669 -7.43168e-10 -70.4063 1.12914e-09 -5.11825e-10 -52.9639 -17.7608 -2.80653e-10 -35.4154 -35.4154 -4.94814e-11 -17.7608 -52.9639 1.33822e-10 2.00531e-09 -70.4063 3.1704e-10 17.8669 -87.7425 5.004e-10 35.84 -104.973 6.83334e-10 53.9192 -122.096 8.67234e-10 72.1046 -139.114 1.05045e-09 90.3961 -156.026 1.23344e-09 -140.176 107.361 -1.52666e-09 -122.839 89.3346 -1.30321e-09 -105.45 71.3616 -1.07933e-09 -88.0078 53.4416 -8.55673e-10 -70.5124 35.5746 -6.31808e-10 -52.9639 17.7608 -4.0807e-10 -35.3624 1.18558e-09 -1.84347e-10 -17.7077 -17.7077 3.94333e-11 2.02918e-09 -35.3624 2.12851e-10 17.7608 -52.9639 3.86255e-10 35.5746 -70.5124 5.59814e-10 53.4416 -88.0078 7.33332e-10 71.3616 -105.45 9.06792e-10 89.3346 -122.839 1.08034e-09 107.361 -140.176 1.25343e-09 -123.954 123.954 -1.38586e-09 -106.246 106.246 -1.16965e-09 -88.5386 88.5386 -9.53319e-10 -70.8308 70.8308 -7.36992e-10 -53.1231 53.1231 -5.20664e-10 -35.4154 35.4154 -3.04394e-10 -17.7077 17.7077 -8.80096e-11 2.02806e-09 1.23146e-09 1.28316e-10 17.7077 -17.7077 2.91965e-10 35.4154 -35.4154 4.55583e-10 53.1231 -53.1231 6.19285e-10 70.8308 -70.8308 7.82931e-10 88.5386 -88.5386 9.46577e-10 106.246 -106.246 1.11011e-09 123.954 -123.954 1.27387e-09 -107.361 140.176 -1.27335e-09 -89.3346 122.839 -1.06162e-09 -71.3616 105.45 -8.501e-10 -53.4416 88.0078 -6.38593e-10 -35.5746 70.5124 -4.26851e-10 -17.7608 52.9639 -2.15294e-10 1.96444e-09 35.3624 -3.63798e-12 17.7077 17.7077 2.0799e-10 35.3624 1.17564e-09 3.77952e-10 52.9639 -17.7608 5.47885e-10 70.5124 -35.5746 7.17847e-10 88.0078 -53.4416 8.87809e-10 105.45 -71.3616 1.05769e-09 122.839 -89.3346 1.22776e-09 140.176 -107.361 1.39772e-09 -90.3961 156.026 -1.16097e-09 -72.1046 139.114 -9.53939e-10 -53.9192 122.096 -7.47036e-10 -35.84 104.973 -5.39814e-10 -17.8669 87.7425 -3.33216e-10 1.91218e-09 70.4063 -1.26192e-10 17.7608 52.9639 8.07745e-11 35.4154 35.4154 2.87741e-10 52.9639 17.7608 4.63899e-10 70.4063 1.07343e-09 6.40199e-10 87.7425 -17.8669 8.16385e-10 104.973 -35.84 9.92543e-10 122.096 -53.9192 1.16904e-09 139.114 -72.1046 1.34503e-09 156.026 -90.3961 1.52124e-09 -73.0599 171.505 -1.04819e-09 -54.5561 155.071 -8.46015e-10 -36.2115 138.477 -6.43951e-10 -18.0261 121.725 -4.4173e-10 1.85949e-09 104.813 -2.39254e-10 17.8669 87.7425 -3.71188e-11 35.5746 70.5124 1.6513e-10 53.1231 53.1231 3.67322e-10 70.5124 35.5746 5.49903e-10 87.7425 17.8669 7.32427e-10 104.813 9.41156e-10 9.14952e-10 121.725 -18.0261 1.09753e-09 138.477 -36.2115 1.27989e-09 155.071 -54.5561 1.46292e-09 171.505 -73.0599 1.64528e-09 -55.3522 186.612 -9.3587e-10 -36.6891 170.708 -7.38069e-10 -18.2384 154.593 -5.40524e-10 1.79766e-09 138.265 -3.43221e-10 18.0261 121.725 -1.45747e-10 35.84 104.973 5.21823e-11 53.4416 88.0078 2.49429e-10 70.8308 70.8308 4.47017e-10 88.0078 53.4416 6.35993e-10 104.973 35.84 8.24855e-10 121.725 18.0261 1.01363e-09 138.265 7.94955e-10 1.20235e-09 154.593 -18.2384 1.39107e-09 170.708 -36.6891 1.58002e-09 186.612 -55.3522 1.76919e-09 -37.2729 201.347 -8.23093e-10 -18.5038 186.028 -6.30735e-10 1.71285e-09 170.443 -4.37751e-10 18.2384 154.593 -2.44597e-10 36.2115 138.477 -5.20686e-11 53.9192 122.096 1.40744e-10 71.3616 105.45 3.33898e-10 88.5386 88.5386 5.26711e-10 105.45 71.3616 7.21798e-10 122.096 53.9192 9.16884e-10 138.477 36.2115 1.11243e-09 154.593 18.2384 1.30717e-09 170.443 6.50857e-10 1.50249e-09 186.028 -18.5038 1.6978e-09 201.347 -37.2729 1.89266e-09 -18.8222 215.712 -7.11225e-10 1.59783e-09 201.029 -5.22419e-10 18.5038 186.028 -3.34524e-10 36.6891 170.708 -1.46485e-10 54.5561 155.071 4.20641e-11 72.1046 139.114 2.29875e-10 89.3346 122.839 4.18027e-10 106.246 106.246 6.06406e-10 122.839 89.3346 8.07745e-10 139.114 72.1046 1.00954e-09 155.071 54.5561 1.21076e-09 170.708 36.6891 1.41199e-09 186.028 18.5038 1.61322e-09 201.029 5.25915e-10 1.81535e-09 215.712 -18.8222 2.01726e-09 1.44018e-09 229.704 -5.98448e-10 18.8222 215.712 -4.14815e-10 37.2729 201.347 -2.31466e-10 55.3522 186.612 -4.76348e-11 73.0599 171.505 1.35515e-10 90.3961 156.026 3.19119e-10 107.361 140.176 5.02723e-10 123.954 123.954 6.85986e-10 140.176 107.361 8.93806e-10 156.026 90.3961 1.10151e-09 171.505 73.0599 1.30922e-09 186.612 55.3522 1.51704e-09 201.347 37.2729 1.72463e-09 215.712 18.8222 1.93268e-09 229.704 4.36216e-10 2.1405e-09 -576.772 7.48059e-10 -2.51998e-09 -540.919 -46.5439 -2.25468e-09 -504.245 -92.2654 -1.98946e-09 -466.748 -137.164 -1.72435e-09 -428.429 -181.241 -1.45923e-09 -389.287 -224.495 -1.19422e-09 -349.323 -266.927 -9.28708e-10 -308.536 -308.536 -6.63476e-10 -266.927 -349.323 -3.70761e-10 -224.495 -389.287 -7.79323e-11 -181.241 -428.429 2.14413e-10 -137.164 -466.748 5.07043e-10 -92.2654 -504.245 7.99673e-10 -46.5439 -540.919 1.09253e-09 1.58116e-09 -576.772 1.38539e-09 -540.919 46.5439 -2.38006e-09 -503.54 7.65588e-10 -2.1206e-09 -465.456 -45.8389 -1.86055e-09 -426.666 -90.9729 -1.60116e-09 -387.172 -135.402 -1.34121e-09 -346.973 -179.126 -1.0814e-09 -306.068 -222.145 -8.21525e-10 -264.459 -264.459 -5.61599e-10 -222.145 -306.068 -2.76135e-10 -179.126 -346.973 8.98689e-12 -135.402 -387.172 2.94337e-10 -90.9729 -426.666 5.79686e-10 -45.8389 -465.456 8.64695e-10 1.61083e-09 -503.54 1.14993e-09 46.5439 -540.919 1.43517e-09 -504.245 92.2654 -2.24116e-09 -465.456 45.8389 -1.98659e-09 -426.079 7.9477e-10 -1.73198e-09 -386.115 -45.2515 -1.47761e-09 -345.563 -89.9155 -1.22325e-09 -304.424 -133.992 -9.6868e-10 -262.697 -177.481 -7.14229e-10 -220.383 -220.383 -4.59721e-10 -177.481 -262.697 -1.81737e-10 -133.992 -304.424 9.61619e-11 -89.9155 -345.563 3.74089e-10 -45.2515 -386.115 6.51874e-10 1.628e-09 -426.079 9.2983e-10 45.8389 -465.456 1.2079e-09 92.2654 -504.245 1.48585e-09 -466.748 137.164 -2.10159e-09 -426.666 90.9729 -1.85264e-09 -386.115 45.2515 -1.60335e-09 -345.093 8.32642e-10 -1.35417e-09 -303.601 -44.7815 -1.10506e-09 -261.639 -89.093 -8.56023e-10 -219.208 -132.935 -6.06762e-10 -176.306 -176.306 -3.57786e-10 -132.935 -219.208 -8.72816e-11 -89.093 -261.639 1.83195e-10 -44.7815 -303.601 4.53614e-10 1.63442e-09 -345.093 7.24176e-10 45.2515 -386.115 9.9451e-10 90.9729 -426.666 1.26496e-09 137.164 -466.748 1.53563e-09 -428.429 181.241 -1.96212e-09 -387.172 135.402 -1.71819e-09 -345.563 89.9155 -1.47434e-09 -303.601 44.7815 -1.23092e-09 -261.287 8.76753e-10 -9.87036e-10 -218.62 -44.429 -7.43393e-10 -175.601 -88.5056 -4.99722e-10 -132.23 -132.23 -2.55909e-10 -88.5056 -175.601 7.21631e-12 -44.429 -218.62 2.70341e-10 1.63192e-09 -261.287 5.33452e-10 44.7815 -303.601 7.96478e-10 89.9155 -345.563 1.05965e-09 135.402 -387.172 1.32264e-09 181.241 -428.429 1.58564e-09 -389.287 224.495 -1.82226e-09 -346.973 179.126 -1.58423e-09 -304.424 133.992 -1.34565e-09 -261.639 89.093 -1.10733e-09 -218.62 44.429 -8.69074e-10 -175.366 9.2291e-10 -6.3065e-10 -131.877 -44.194 -3.92369e-10 -88.1531 -88.1531 -1.54003e-10 -44.194 -131.877 1.01686e-10 1.62476e-09 -175.366 3.57388e-10 44.429 -218.62 6.13091e-10 89.093 -261.639 8.6878e-10 133.992 -304.424 1.12464e-09 179.126 -346.973 1.38016e-09 224.495 -389.287 1.6357e-09 -349.323 266.927 -1.68285e-09 -306.068 222.145 -1.44977e-09 -262.697 177.481 -1.21691e-09 -219.208 132.935 -9.84137e-10 -175.601 88.5056 -7.50919e-10 -131.877 44.194 -5.18121e-10 -88.0356 9.69294e-10 -2.85087e-10 -44.0765 -44.0765 -5.21392e-11 1.61447e-09 -88.0356 1.96141e-10 44.194 -131.877 4.44464e-10 88.5056 -175.601 6.92645e-10 132.935 -219.208 9.41167e-10 177.481 -262.697 1.18939e-09 222.145 -306.068 1.43741e-09 266.927 -349.323 1.68594e-09 -308.536 308.536 -1.54336e-09 -264.459 264.459 -1.31601e-09 -220.383 220.383 -1.08819e-09 -176.306 176.306 -8.60609e-10 -132.23 132.23 -6.32968e-10 -88.1531 88.1531 -4.05412e-10 -44.0765 44.0765 -1.77841e-10 1.60458e-09 1.01181e-09 4.9752e-11 44.0765 -44.0765 2.90657e-10 88.1531 -88.1531 5.31559e-10 132.23 -132.23 7.72446e-10 176.306 -176.306 1.01342e-09 220.383 -220.383 1.25434e-09 264.459 -264.459 1.49508e-09 308.536 -308.536 1.73617e-09 -266.927 349.323 -1.4592e-09 -222.145 306.068 -1.22609e-09 -177.481 262.697 -9.9271e-10 -132.935 219.208 -7.59378e-10 -88.5056 175.601 -5.26292e-10 -44.194 131.877 -2.92943e-10 1.59966e-09 88.0356 -5.97566e-11 44.0765 44.0765 1.73458e-10 88.0356 9.94788e-10 4.07809e-10 131.877 -44.194 6.42139e-10 175.601 -88.5056 8.76582e-10 219.208 -132.935 1.11079e-09 262.697 -177.481 1.3453e-09 306.068 -222.145 1.57956e-09 349.323 -266.927 1.81399e-09 -224.495 389.287 -1.37499e-09 -179.126 346.973 -1.13612e-09 -133.992 304.424 -8.97174e-10 -89.093 261.639 -6.58432e-10 -44.429 218.62 -4.19504e-10 1.59451e-09 175.366 -1.80648e-10 44.194 131.877 5.82929e-11 88.1531 88.1531 2.97177e-10 131.877 44.194 5.24906e-10 175.366 9.72364e-10 7.52692e-10 218.62 -44.429 9.80521e-10 261.639 -89.093 1.20824e-09 304.424 -133.992 1.43606e-09 346.973 -179.126 1.66392e-09 389.287 -224.495 1.89169e-09 -181.241 428.429 -1.29091e-09 -135.402 387.172 -1.04625e-09 -89.9155 345.563 -8.01791e-10 -44.7815 303.601 -5.57151e-10 1.58587e-09 261.287 -3.12696e-10 44.429 218.62 -6.81837e-11 88.5056 175.601 1.76414e-10 132.23 132.23 4.20926e-10 175.601 88.5056 6.42061e-10 218.62 44.429 8.63253e-10 261.287 9.4542e-10 1.08443e-09 303.601 -44.7815 1.30558e-09 345.563 -89.9155 1.52687e-09 387.172 -135.402 1.74816e-09 428.429 -181.241 1.96917e-09 -137.164 466.748 -1.20667e-09 -90.9729 426.666 -9.5644e-10 -45.2515 386.115 -7.06336e-10 1.57036e-09 345.093 -4.56197e-10 44.7815 303.601 -2.06086e-10 89.093 261.639 4.43379e-11 132.935 219.208 2.94278e-10 176.306 176.306 5.4456e-10 219.208 132.935 7.59215e-10 261.639 89.093 9.73898e-10 303.601 44.7815 1.1886e-09 345.093 9.16089e-10 1.40307e-09 386.115 -45.2515 1.61776e-09 426.666 -90.9729 1.83263e-09 466.748 -137.164 2.04705e-09 -92.2654 504.245 -1.12232e-09 -45.8389 465.456 -8.6682e-10 1.54427e-09 426.079 -6.10896e-10 45.2515 386.115 -3.5493e-10 89.9155 345.563 -9.91349e-11 133.992 304.424 1.5666e-10 177.481 262.697 4.1257e-10 220.383 220.383 6.68308e-10 262.697 177.481 8.76184e-10 304.424 133.992 1.08432e-09 345.563 89.9155 1.29245e-09 386.115 45.2515 1.50044e-09 426.079 8.83574e-10 1.70871e-09 465.456 -45.8389 1.91687e-09 504.245 -92.2654 2.12458e-09 -46.5439 540.919 -1.03864e-09 1.50447e-09 503.54 -7.77035e-10 45.8389 465.456 -5.15598e-10 90.9729 426.666 -2.53692e-10 135.402 387.172 7.7307e-12 179.126 346.973 2.6904e-10 222.145 306.068 5.30576e-10 264.459 264.459 7.92056e-10 306.068 222.145 9.93481e-10 346.973 179.126 1.19496e-09 387.172 135.402 1.39624e-09 426.666 90.9729 1.59787e-09 465.456 45.8389 1.79932e-09 503.54 8.52197e-10 2.00089e-09 540.919 -46.5439 2.2028e-09 1.4461e-09 576.772 -9.5406e-10 46.5439 540.919 -6.86157e-10 92.2654 504.245 -4.19874e-10 137.164 466.748 -1.52909e-10 181.241 428.429 1.14312e-10 224.495 389.287 3.81533e-10 266.927 349.323 6.48583e-10 308.536 308.536 9.15861e-10 349.323 266.927 1.11069e-09 389.287 224.495 1.30541e-09 428.429 181.241 1.50078e-09 466.748 137.164 1.69541e-09 504.245 92.2654 1.89038e-09 540.919 46.5439 2.0857e-09 576.772 8.19e-10 2.2801e-09 -914.763 8.91305e-10 -2.31512e-09 -858.333 -74.2504 -2.07385e-09 -800.532 -147.13 -1.83252e-09 -741.361 -218.639 -1.59082e-09 -680.818 -288.777 -1.34969e-09 -618.905 -357.544 -1.10845e-09 -555.621 -424.94 -8.67203e-10 -490.966 -490.966 -6.25732e-10 -424.94 -555.621 -3.24349e-10 -357.544 -618.905 -2.33058e-11 -288.777 -680.818 2.77851e-10 -218.639 -741.361 5.79348e-10 -147.13 -800.532 8.80846e-10 -74.2504 -858.333 1.18189e-09 1.27238e-09 -914.763 1.48293e-09 -858.333 74.2504 -2.1941e-09 -799.357 7.91425e-10 -1.95893e-09 -739.206 -73.0754 -1.72319e-09 -677.881 -144.976 -1.48813e-09 -615.38 -215.701 -1.25273e-09 -551.704 -285.252 -1.01744e-09 -486.854 -353.627 -7.81927e-10 -420.828 -420.828 -5.46413e-10 -353.627 -486.854 -2.50843e-10 -285.252 -551.704 4.45003e-11 -215.701 -615.38 3.399e-10 -144.976 -677.881 6.35414e-10 -73.0754 -739.206 9.30814e-10 1.27415e-09 -799.357 1.22644e-09 74.2504 -858.333 1.52116e-09 -800.532 147.13 -2.07399e-09 -739.206 73.0754 -1.84483e-09 -676.902 7.04148e-10 -1.61488e-09 -613.618 -72.0963 -1.38572e-09 -549.354 -143.213 -1.15588e-09 -484.112 -213.351 -9.26208e-10 -417.891 -282.51 -6.96765e-10 -350.69 -350.69 -4.67094e-10 -282.51 -417.891 -1.77479e-10 -213.351 -484.112 1.12079e-10 -143.213 -549.354 4.01836e-10 -72.0963 -613.618 6.91593e-10 1.28449e-09 -676.902 9.81237e-10 73.0754 -739.206 1.27077e-09 147.13 -800.532 1.56007e-09 -741.361 218.639 -1.95411e-09 -677.881 144.976 -1.73016e-09 -613.618 72.0963 -1.50651e-09 -548.571 6.36589e-10 -1.28269e-09 -482.741 -71.313 -1.05909e-09 -416.128 -141.843 -8.35316e-10 -348.732 -211.589 -6.11488e-10 -280.552 -280.552 -3.87775e-10 -211.589 -348.732 -1.03945e-10 -141.843 -416.128 1.79772e-10 -71.313 -482.741 4.63658e-10 1.29444e-09 -548.571 7.47432e-10 72.0963 -613.618 1.0312e-09 144.976 -677.881 1.31509e-09 218.639 -741.361 1.59943e-09 -680.818 288.777 -1.834e-09 -615.38 215.701 -1.61599e-09 -549.354 143.213 -1.39772e-09 -482.741 71.313 -1.18002e-09 -415.541 5.89807e-10 -9.62066e-10 -347.753 -70.7255 -7.44253e-10 -279.377 -140.863 -5.26383e-10 -210.414 -210.414 -3.08456e-10 -140.863 -279.377 -3.03822e-11 -70.7255 -347.753 2.47635e-10 1.30376e-09 -415.541 5.25651e-10 71.313 -482.741 8.03611e-10 143.213 -549.354 1.08174e-09 215.701 -615.38 1.35976e-09 288.777 -680.818 1.63777e-09 -618.905 357.544 -1.71344e-09 -551.704 285.252 -1.50133e-09 -484.112 213.351 -1.2893e-09 -416.128 141.843 -1.07707e-09 -347.753 70.7255 -8.65246e-10 -278.985 5.68434e-10 -6.53247e-10 -209.827 -70.3338 -4.41163e-10 -140.276 -140.276 -2.2925e-10 -70.3338 -209.827 4.30241e-11 1.30308e-09 -278.985 3.1527e-10 70.7255 -347.753 5.8736e-10 141.843 -416.128 8.59734e-10 213.351 -484.112 1.13199e-09 285.252 -551.704 1.4042e-09 357.544 -618.905 1.67646e-09 -555.621 424.94 -1.5927e-09 -486.854 353.627 -1.38667e-09 -417.891 282.51 -1.18057e-09 -348.732 211.589 -9.74594e-10 -279.377 140.863 -7.68269e-10 -209.827 70.3338 -5.62156e-10 -140.08 5.74573e-10 -3.56029e-10 -70.138 -70.138 -1.49903e-10 1.28799e-09 -140.08 1.16537e-10 70.3338 -209.827 3.82963e-10 140.863 -279.377 6.49409e-10 211.589 -348.732 9.15743e-10 282.51 -417.891 1.18227e-09 353.627 -486.854 1.44869e-09 424.94 -555.621 1.71486e-09 -490.966 490.966 -1.47269e-09 -420.828 420.828 -1.27266e-09 -350.69 350.69 -1.07205e-09 -280.552 280.552 -8.719e-10 -210.414 210.414 -6.71409e-10 -140.276 140.276 -4.71202e-10 -70.138 70.138 -2.70909e-10 1.25556e-09 6.14364e-10 -7.05867e-11 70.138 -70.138 1.90047e-10 140.276 -140.276 4.50733e-10 210.414 -210.414 7.11391e-10 280.552 -280.552 9.71993e-10 350.69 -350.69 1.23248e-09 420.828 -420.828 1.49342e-09 490.966 -490.966 1.75391e-09 -424.94 555.621 -1.4e-09 -353.627 486.854 -1.19424e-09 -282.51 417.891 -9.88571e-10 -211.589 348.732 -7.82819e-10 -140.863 279.377 -5.77131e-10 -70.3338 209.827 -3.7133e-10 1.2183e-09 140.08 -1.65528e-10 70.138 70.138 4.01599e-11 140.08 6.58304e-10 2.95259e-10 209.827 -70.3338 5.50386e-10 279.377 -140.863 8.05585e-10 348.732 -211.589 1.06076e-09 417.891 -282.51 1.31587e-09 486.854 -353.627 1.57104e-09 555.621 -424.94 1.82621e-09 -357.544 618.905 -1.32729e-09 -285.252 551.704 -1.11628e-09 -213.351 484.112 -9.04834e-10 -141.843 416.128 -6.93746e-10 -70.7255 347.753 -4.82743e-10 1.18916e-09 278.985 -2.7137e-10 70.3338 209.827 -6.0254e-11 140.276 140.276 1.50919e-10 209.827 70.3338 4.0049e-10 278.985 7.10429e-10 6.50118e-10 347.753 -70.7255 8.99831e-10 416.128 -141.843 1.14943e-09 484.112 -213.351 1.39914e-09 551.704 -285.252 1.64891e-09 618.905 -357.544 1.89823e-09 -288.777 680.818 -1.25442e-09 -215.701 615.38 -1.03786e-09 -143.213 549.354 -8.21785e-10 -71.313 482.741 -6.04786e-10 1.16802e-09 415.541 -3.88127e-10 70.7255 347.753 -1.71497e-10 140.863 279.377 4.502e-11 210.414 210.414 2.61593e-10 279.377 140.863 5.05764e-10 347.753 70.7255 7.49822e-10 415.541 7.66931e-10 9.94078e-10 482.741 -71.313 1.23794e-09 549.354 -143.213 1.48225e-09 615.38 -215.701 1.72622e-09 680.818 -288.777 1.97031e-09 -218.639 741.361 -1.18189e-09 -144.976 677.881 -9.59773e-10 -72.0963 613.618 -7.37913e-10 1.16131e-09 548.571 -5.15797e-10 71.313 482.741 -2.9371e-10 141.843 416.128 -7.16227e-11 211.589 348.732 1.50294e-10 280.552 280.552 3.72438e-10 348.732 211.589 6.11038e-10 416.128 141.843 8.49695e-10 482.741 71.313 1.08821e-09 548.571 8.26731e-10 1.32695e-09 613.618 -72.0963 1.56581e-09 677.881 -144.976 1.80421e-09 741.361 -218.639 2.0425e-09 -147.13 800.532 -1.10958e-09 -73.0754 739.206 -8.81812e-10 1.1724e-09 676.902 -6.54097e-10 72.0963 613.618 -4.26724e-10 143.213 549.354 -1.9952e-10 213.351 484.112 2.8308e-11 282.51 417.891 2.55795e-10 350.69 350.69 4.83169e-10 417.891 282.51 7.16085e-10 484.112 213.351 9.49342e-10 549.354 143.213 1.18246e-09 613.618 72.0963 1.4154e-09 676.902 8.86757e-10 1.64891e-09 739.206 -73.0754 1.88197e-09 800.532 -147.13 2.11526e-09 -74.2504 858.333 -1.03637e-09 1.2036e-09 799.357 -8.03823e-10 73.0754 739.206 -5.70878e-10 144.976 677.881 -3.37423e-10 215.701 615.38 -1.04819e-10 285.252 551.704 1.28011e-10 353.627 486.854 3.60956e-10 420.828 420.828 5.939e-10 486.854 353.627 8.21387e-10 551.704 285.252 1.0491e-09 615.38 215.701 1.2767e-09 677.881 144.976 1.50408e-09 739.206 73.0754 1.73168e-09 799.357 9.42237e-10 1.95951e-09 858.333 -74.2504 2.18711e-09 1.26238e-09 914.763 -9.6361e-10 74.2504 858.333 -7.2535e-10 147.13 800.532 -4.86921e-10 218.639 741.361 -2.4886e-10 288.777 680.818 -1.05729e-11 357.544 618.905 2.27828e-10 424.94 555.621 4.66343e-10 490.966 490.966 7.04631e-10 555.621 424.94 9.26718e-10 618.905 357.544 1.14881e-09 680.818 288.777 1.37095e-09 741.361 218.639 1.59298e-09 800.532 147.13 1.8149e-09 858.333 74.2504 2.03704e-09 914.763 9.93168e-10 2.25873e-09 -1121.37 4.75211e-10 -2.02849e-09 -1052.12 -90.9412 -1.82877e-09 -981.195 -180.214 -1.62967e-09 -908.604 -267.819 -1.43017e-09 -834.345 -353.756 -1.23065e-09 -758.417 -438.024 -1.03113e-09 -680.821 -520.625 -8.31752e-10 -601.557 -601.557 -6.32372e-10 -520.625 -680.821 -3.22658e-10 -438.024 -758.417 -1.24096e-11 -353.756 -834.345 2.97488e-10 -267.819 -908.604 6.07272e-10 -180.214 -981.195 9.17229e-10 -90.9412 -1052.12 1.2273e-09 1.17598e-09 -1121.37 1.53736e-09 -1052.12 90.9412 -1.97145e-09 -979.766 3.92067e-10 -1.76939e-09 -905.983 -89.5114 -1.56669e-09 -830.77 -177.593 -1.36441e-09 -754.127 -264.244 -1.16194e-09 -676.055 -349.466 -9.59439e-10 -596.552 -433.258 -7.57142e-10 -515.62 -515.62 -5.54673e-10 -433.258 -596.552 -2.50971e-10 -349.466 -676.055 5.27037e-11 -264.244 -754.127 3.56503e-10 -177.593 -830.77 6.60251e-10 -89.5114 -905.983 9.6393e-10 1.18607e-09 -979.766 1.26745e-09 90.9412 -1052.12 1.57097e-09 -981.195 180.214 -1.91521e-09 -905.983 89.5114 -1.70992e-09 -829.578 3.5439e-10 -1.50423e-09 -751.982 -88.3198 -1.29887e-09 -673.195 -175.448 -1.09337e-09 -593.216 -261.385 -8.87897e-10 -512.046 -346.13 -6.8265e-10 -429.684 -429.684 -4.77149e-10 -346.13 -512.046 -1.79569e-10 -261.385 -593.216 1.17925e-10 -175.448 -673.195 4.1535e-10 -88.3198 -751.982 7.12657e-10 1.19351e-09 -829.578 1.0106e-09 89.5114 -905.983 1.30773e-09 180.214 -981.195 1.60549e-09 -908.604 267.819 -1.8584e-09 -830.77 177.593 -1.65014e-09 -751.982 88.3198 -1.44157e-09 -672.242 3.5115e-10 -1.23315e-09 -591.548 -87.3666 -1.02477e-09 -509.901 -173.78 -8.16435e-10 -427.3 -259.24 -6.07985e-10 -343.747 -343.747 -3.99506e-10 -259.24 -427.3 -1.08294e-10 -173.78 -509.901 1.83064e-10 -87.3666 -591.548 4.74164e-10 1.19573e-09 -672.242 7.65691e-10 88.3198 -751.982 1.05657e-09 177.593 -830.77 1.34812e-09 267.819 -908.604 1.63933e-09 -834.345 353.756 -1.80182e-09 -754.127 264.244 -1.59049e-09 -673.195 175.448 -1.37892e-09 -591.548 87.3666 -1.16774e-09 -509.186 3.76929e-10 -9.56213e-10 -426.109 -86.6516 -7.44774e-10 -342.317 -172.588 -5.33376e-10 -257.81 -257.81 -3.21866e-10 -172.588 -342.317 -3.68677e-11 -86.6516 -426.109 2.48231e-10 1.19539e-09 -509.186 5.33263e-10 87.3666 -591.548 8.1827e-10 175.448 -673.195 1.10333e-09 264.244 -754.127 1.38805e-09 353.756 -834.345 1.67317e-09 -758.417 438.024 -1.74524e-09 -676.055 349.466 -1.53103e-09 -593.216 261.385 -1.31643e-09 -509.901 173.78 -1.1019e-09 -426.109 86.6516 -8.87529e-10 -341.84 4.20812e-10 -6.73114e-10 -257.095 -86.175 -4.58684e-10 -171.873 -171.873 -2.44297e-10 -86.175 -257.095 3.45358e-11 1.19428e-09 -341.84 3.13354e-10 86.6516 -426.109 5.92279e-10 173.78 -509.901 8.7102e-10 261.385 -593.216 1.14996e-09 349.466 -676.055 1.42873e-09 438.024 -758.417 1.70747e-09 -680.821 520.625 -1.68858e-09 -596.552 433.258 -1.47127e-09 -512.046 346.13 -1.25373e-09 -427.3 259.24 -1.03652e-09 -342.317 172.588 -8.18952e-10 -257.095 86.175 -6.01574e-10 -171.635 4.75325e-10 -3.84126e-10 -85.9367 -85.9367 -1.66677e-10 1.19191e-09 -171.635 1.05896e-10 86.175 -257.095 3.78478e-10 172.588 -342.317 6.51109e-10 259.24 -427.3 9.23811e-10 346.13 -512.046 1.19631e-09 433.258 -596.552 1.46897e-09 520.625 -680.821 1.74156e-09 -601.557 601.557 -1.63196e-09 -515.62 515.62 -1.41164e-09 -429.684 429.684 -1.1912e-09 -343.747 343.747 -9.70726e-10 -257.81 257.81 -7.50338e-10 -171.873 171.873 -5.29924e-10 -85.9367 85.9367 -3.09481e-10 1.19041e-09 5.31372e-10 -8.90749e-11 85.9367 -85.9367 1.77309e-10 171.873 -171.873 4.43685e-10 257.81 -257.81 7.10034e-10 343.747 -343.747 9.76482e-10 429.684 -429.684 1.24287e-09 515.62 -515.62 1.50918e-09 601.557 -601.557 1.7756e-09 -520.625 680.821 -1.55644e-09 -433.258 596.552 -1.33132e-09 -346.13 512.046 -1.10582e-09 -259.24 427.3 -8.80365e-10 -172.588 342.317 -6.54885e-10 -86.175 257.095 -4.29468e-10 1.19883e-09 171.635 -2.03959e-10 85.9367 85.9367 2.1501e-11 171.635 5.00734e-10 2.79586e-10 257.095 -86.175 5.37629e-10 342.317 -172.588 7.95726e-10 427.3 -259.24 1.05391e-09 512.046 -346.13 1.31194e-09 596.552 -433.258 1.57018e-09 680.821 -520.625 1.82782e-09 -438.024 758.417 -1.48127e-09 -349.466 676.055 -1.25064e-09 -261.385 593.216 -1.02021e-09 -173.78 509.901 -7.8983e-10 -86.6516 426.109 -5.5939e-10 1.20124e-09 341.84 -3.28909e-10 86.175 257.095 -9.84279e-11 171.873 171.873 1.32025e-10 257.095 86.175 3.81854e-10 341.84 4.74188e-10 6.31524e-10 426.109 -86.6516 8.8141e-10 509.901 -173.78 1.13117e-09 593.216 -261.385 1.38098e-09 676.055 -349.466 1.63074e-09 758.417 -438.024 1.88044e-09 -353.756 834.345 -1.40574e-09 -264.244 754.127 -1.17036e-09 -175.448 673.195 -9.34853e-10 -87.3666 591.548 -6.99207e-10 1.19772e-09 509.186 -4.6389e-10 86.6516 426.109 -2.28314e-10 172.588 342.317 7.15872e-12 257.81 257.81 2.42634e-10 342.317 172.588 4.83981e-10 426.109 86.6516 7.25483e-10 509.186 4.53724e-10 9.66988e-10 591.548 -87.3666 1.20819e-09 673.195 -175.448 1.45002e-09 754.127 -264.244 1.69151e-09 834.345 -353.756 1.93294e-09 -267.819 908.604 -1.33036e-09 -177.593 830.77 -1.0898e-09 -88.3198 751.982 -8.49297e-10 1.18968e-09 672.242 -6.08815e-10 87.3666 591.548 -3.68344e-10 173.78 509.901 -1.27835e-10 259.24 427.3 1.12648e-10 343.747 343.747 3.53131e-10 427.3 259.24 5.8638e-10 509.901 173.78 8.19401e-10 591.548 87.3666 1.05273e-09 672.242 4.42924e-10 1.28581e-09 751.982 -88.3198 1.51923e-09 830.77 -177.593 1.75226e-09 908.604 -267.819 1.98533e-09 -180.214 981.195 -1.25481e-09 -89.5114 905.983 -1.00933e-09 1.17535e-09 829.578 -7.63992e-10 88.3198 751.982 -5.18275e-10 175.448 673.195 -2.72846e-10 261.385 593.216 -2.73559e-11 346.13 512.046 2.18309e-10 429.684 429.684 4.63682e-10 512.046 346.13 6.88464e-10 593.216 261.385 9.13413e-10 673.195 175.448 1.13826e-09 751.982 88.3198 1.36309e-09 829.578 4.43379e-10 1.58811e-09 905.983 -89.5114 1.81317e-09 981.195 -180.214 2.03772e-09 -90.9412 1052.12 -1.17914e-09 1.15728e-09 979.766 -9.28665e-10 89.5114 905.983 -6.7831e-10 177.593 830.77 -4.27728e-10 264.244 754.127 -1.77202e-10 349.466 676.055 7.30989e-11 433.258 596.552 3.23851e-10 515.62 515.62 5.74266e-10 596.552 433.258 7.90635e-10 676.055 349.466 1.00732e-09 754.127 264.244 1.22389e-09 830.77 177.593 1.44026e-09 905.983 89.5114 1.65698e-09 979.766 4.59067e-10 1.87358e-09 1052.12 -90.9412 2.09006e-09 1.13482e-09 1121.37 -1.10403e-09 90.9412 1052.12 -8.4834e-10 180.214 981.195 -5.93166e-10 267.819 908.604 -3.37463e-10 353.756 834.345 -8.15863e-11 438.024 758.417 1.73834e-10 520.625 680.821 4.29281e-10 601.557 601.557 6.84846e-10 680.821 520.625 8.93317e-10 758.417 438.024 1.1012e-09 834.345 353.756 1.30952e-09 908.604 267.819 1.51766e-09 981.195 180.214 1.72601e-09 1052.12 90.9412 1.93449e-09 1121.37 4.91127e-10 2.14251e-09 -1313.9 1.07775e-10 -1.79321e-09 -1232.8 -106.597 -1.62555e-09 -1149.73 -211.233 -1.45867e-09 -1064.71 -313.909 -1.29165e-09 -977.722 -414.622 -1.12428e-09 -888.775 -513.375 -9.573e-10 -797.866 -610.167 -7.90081e-10 -704.997 -704.997 -6.23004e-10 -610.167 -797.866 -3.07288e-10 -513.375 -888.775 8.60467e-12 -414.622 -977.722 3.24377e-10 -313.909 -1064.71 6.40114e-10 -211.233 -1149.73 9.55964e-10 -106.597 -1232.8 1.27199e-09 9.88166e-10 -1313.9 1.58738e-09 -1232.8 106.597 -1.78236e-09 -1148.05 4.70948e-11 -1.60619e-09 -1061.63 -104.916 -1.4296e-09 -973.519 -208.152 -1.25298e-09 -883.732 -309.706 -1.07671e-09 -792.263 -409.579 -8.99978e-10 -699.114 -507.772 -7.23607e-10 -604.283 -604.283 -5.47043e-10 -507.772 -699.114 -2.38449e-10 -409.579 -792.263 7.03224e-11 -309.706 -883.732 3.78838e-10 -208.152 -973.519 6.87461e-10 -104.916 -1061.63 9.9609e-10 9.9962e-10 -1148.05 1.30462e-09 106.597 -1232.8 1.61311e-09 -1149.73 211.233 -1.77241e-09 -1061.63 104.916 -1.58687e-09 -972.118 1.59446e-11 -1.40083e-09 -881.21 -103.516 -1.21492e-09 -788.901 -205.63 -1.02897e-09 -695.191 -306.344 -8.43069e-10 -600.081 -405.657 -6.57168e-10 -503.569 -503.569 -4.7104e-10 -405.657 -600.081 -1.69587e-10 -306.344 -695.191 1.31816e-10 -205.63 -788.901 4.33349e-10 -103.516 -881.21 7.34715e-10 1.00755e-09 -972.118 1.03626e-09 104.916 -1061.63 1.33757e-09 211.233 -1149.73 1.63865e-09 -1064.71 313.909 -1.7627e-09 -973.519 208.152 -1.56726e-09 -881.21 103.516 -1.37192e-09 -787.78 8.86757e-12 -1.17654e-09 -693.23 -102.395 -9.80981e-10 -597.559 -203.669 -7.85875e-10 -500.768 -303.823 -5.90324e-10 -402.855 -402.855 -3.94972e-10 -303.823 -500.768 -1.00856e-10 -203.669 -597.559 1.93417e-10 -102.395 -693.23 4.87633e-10 1.01267e-09 -787.78 7.81913e-10 103.516 -881.21 1.07597e-09 208.152 -973.519 1.37063e-09 313.909 -1064.71 1.6644e-09 -977.722 414.622 -1.75242e-09 -883.732 309.706 -1.54773e-09 -788.901 205.63 -1.34288e-09 -693.23 102.395 -1.13813e-09 -596.719 2.05773e-11 -9.33323e-10 -499.367 -101.554 -7.28521e-10 -401.175 -202.268 -5.23779e-10 -302.142 -302.142 -3.18997e-10 -202.268 -401.175 -3.19208e-11 -101.554 -499.367 2.5522e-10 1.01511e-09 -596.719 5.42147e-10 102.395 -693.23 8.29274e-10 205.63 -788.901 1.11634e-09 309.706 -883.732 1.40319e-09 414.622 -977.722 1.69048e-09 -888.775 513.375 -1.74225e-09 -792.263 409.579 -1.52842e-09 -695.191 306.344 -1.31397e-09 -597.559 203.669 -1.09968e-09 -499.367 101.554 -8.85575e-10 -400.614 4.58158e-11 -6.71354e-10 -301.301 -100.994 -4.57137e-10 -201.428 -201.428 -2.42962e-10 -100.994 -301.301 3.69141e-11 1.01835e-09 -400.614 3.16694e-10 101.554 -499.367 5.9657e-10 203.669 -597.559 8.76436e-10 306.344 -695.191 1.15633e-09 409.579 -792.263 1.43608e-09 513.375 -888.775 1.71583e-09 -797.866 610.167 -1.7324e-09 -699.114 507.772 -1.50876e-09 -600.081 405.657 -1.28492e-09 -500.768 303.823 -1.06154e-09 -401.175 202.268 -8.3778e-10 -301.301 100.994 -6.14164e-10 -201.148 7.84439e-11 -3.90534e-10 -100.714 -100.714 -1.66918e-10 1.02125e-09 -201.148 1.05761e-10 100.994 -301.301 3.78363e-10 202.268 -401.175 6.51056e-10 303.823 -500.768 9.23731e-10 405.657 -600.081 1.19621e-09 507.772 -