<?xml version="1.0"?> 
<VTKFile type="StructuredGrid" version="0.1"> 
<StructuredGrid WholeExtent="0 29 0 29 0 29"> 
<Piece Extent="0 29 0 29 0 29"> 
<PointData>
<DataArray type="Float32" Name="hfield" format="ascii" NumberOfComponents="3"> 
-1.10144 -0.0411246 0 -1.12906 -0.011238 1.92751e-15 -1.15667 0.0118751 3.49447e-15 -1.18429 0.0295639 4.99314e-15 -1.21191 0.0428688 6.29945e-15 -1.23952 0.0526051 7.16978e-15 -1.26714 0.0594204 8.34387e-15 -1.29475 0.0638361 9.12305e-15 -1.32237 0.0662762 9.8709e-15 -1.34999 0.0670895 9.62873e-15 -1.3776 0.0665652 1.09751e-14 -1.40522 0.0649453 1.07377e-14 -1.43284 0.0624339 1.08195e-14 -1.46045 0.0592042 1.12011e-14 -1.48807 0.055404 1.21552e-14 -1.49864 0.0565263 1.06868e-14 -1.49216 0.0614126 1.08207e-14 -1.48569 0.0644442 1.09412e-14 -1.47921 0.0657837 9.54295e-15 -1.47274 0.0655736 1.0178e-14 -1.46626 0.0639394 8.89429e-15 -1.45979 0.0609919 8.59819e-15 -1.45332 0.0568296 8.31877e-15 -1.44684 0.0515402 7.63075e-15 -1.44037 0.0452018 6.57236e-15 -1.43389 0.0378847 6.37277e-15 -1.42742 0.0296518 4.63747e-15 -1.42094 0.02056 4.50239e-15 -1.41447 0.0106606 4.37382e-15 -1.40799 -5.31413e-16 3.54275e-15 -1.05369 -0.0664936 1.38244e-15 -1.08546 -0.04707 2.79889e-15 -1.11684 -0.0327055 4.07872e-15 -1.14789 -0.0224153 5.2225e-15 -1.17867 -0.0154259 6.33542e-15 -1.20919 -0.0111215 7.2441e-15 -1.2395 -0.00900588 7.68196e-15 -1.26962 -0.00867485 8.0464e-15 -1.29957 -0.00979574 9.0613e-15 -1.32937 -0.0120924 9.0911e-15 -1.35902 -0.0153338 9.78628e-15 -1.38854 -0.019325 9.54819e-15 -1.41795 -0.0239008 1.04721e-14 -1.44724 -0.0289197 1.05371e-14 -1.47643 -0.0342605 9.15433e-15 -1.48915 -0.0340584 9.43088e-15 -1.4854 -0.029389 9.06126e-15 -1.48157 -0.0262567 9.77806e-15 -1.47766 -0.0245219 8.41405e-15 -1.47368 -0.0240616 8.58368e-15 -1.46964 -0.024767 7.36269e-15 -1.46554 -0.0265415 8.48646e-15 -1.46139 -0.029299 6.89926e-15 -1.45719 -0.0329625 7.55138e-15 -1.45295 -0.0374632 5.67802e-15 -1.44867 -0.0427388 5.52643e-15 -1.44436 -0.0487336 4.60341e-15 -1.44001 -0.0553968 3.74019e-15 -1.43563 -0.0626827 3.66927e-15 -1.43122 -0.0705496 2.88445e-15 -1.00968 -0.0956152 2.2902e-15 -1.04451 -0.0849042 3.47342e-15 -1.0787 -0.0779632 4.4375e-15 -1.11235 -0.0740599 5.36959e-15 -1.14552 -0.0726104 6.1543e-15 -1.17828 -0.0731439 7.22606e-15 -1.21067 -0.0752766 7.36519e-15 -1.24272 -0.0786926 8.53462e-15 -1.27446 -0.0831295 8.45929e-15 -1.30593 -0.0883678 8.79357e-15 -1.33715 -0.0942226 8.58693e-15 -1.36813 -0.100537 8.26241e-15 -1.39889 -0.107177 9.50835e-15 -1.42944 -0.114028 9.88599e-15 -1.45981 -0.12099 9.08062e-15 -1.47424 -0.121843 9.91135e-15 -1.47275 -0.117584 8.37604e-15 -1.47111 -0.114584 8.58753e-15 -1.46933 -0.112723 6.77044e-15 -1.46743 -0.111897 7.50217e-15 -1.4654 -0.112011 6.27953e-15 -1.46327 -0.112981 7.01538e-15 -1.46105 -0.114733 5.9301e-15 -1.45873 -0.117201 5.74764e-15 -1.45633 -0.120323 5.18624e-15 -1.45385 -0.124046 4.66353e-15 -1.45131 -0.12832 3.78456e-15 -1.4487 -0.133102 2.95486e-15 -1.44603 -0.138349 3.68098e-15 -1.4433 -0.144027 1.45985e-15 -0.968383 -0.127442 2.92364e-15 -1.00544 -0.124092 3.89733e-15 -1.04171 -0.123523 4.6872e-15 -1.0773 -0.125184 5.33557e-15 -1.11227 -0.128627 5.98874e-15 -1.14671 -0.133491 6.36808e-15 -1.18065 -0.139476 6.98871e-15 -1.21415 -0.146333 7.10734e-15 -1.24725 -0.153856 7.2322e-15 -1.27996 -0.161869 7.96661e-15 -1.31233 -0.170224 8.60201e-15 -1.34438 -0.178796 8.55232e-15 -1.37612 -0.187475 8.35307e-15 -1.40757 -0.19617 8.40633e-15 -1.43875 -0.2048 8.13425e-15 -1.45451 -0.206799 8.18911e-15 -1.45488 -0.203093 8.36167e-15 -1.45504 -0.200403 8.00475e-15 -1.455 -0.198628 7.2168e-15 -1.45479 -0.197676 6.93268e-15 -1.45442 -0.197468 6.69609e-15 -1.45389 -0.197933 6.96371e-15 -1.45323 -0.199005 5.87088e-15 -1.45244 -0.200628 5.27294e-15 -1.45153 -0.202749 4.29625e-15 -1.45052 -0.205321 4.63248e-15 -1.4494 -0.208302 4.55822e-15 -1.44818 -0.211653 3.71898e-15 -1.44688 -0.21534 3.31457e-15 -1.4455 -0.219329 2.943e-15 -0.92903 -0.161214 3.30973e-15 -0.96769 -0.164156 3.81337e-15 -1.00546 -0.169109 4.75753e-15 -1.04246 -0.175652 5.29376e-15 -1.07874 -0.183442 5.8152e-15 -1.1144 -0.192197 6.10754e-15 -1.14948 -0.201682 6.31172e-15 -1.18402 -0.211703 7.33775e-15 -1.21808 -0.222096 7.25842e-15 -1.25168 -0.23272 7.62447e-15 -1.28485 -0.243458 7.56781e-15 -1.31763 -0.254209 8.28128e-15 -1.35002 -0.264886 7.7022e-15 -1.38206 -0.275415 8.01983e-15 -1.41375 -0.285729 8.13522e-15 -1.4305 -0.288933 7.85565e-15 -1.43236 -0.285882 8.28205e-15 -1.43396 -0.283634 6.91824e-15 -1.43533 -0.282104 6.64668e-15 -1.43648 -0.281215 6.4004e-15 -1.43743 -0.2809 6.66849e-15 -1.43819 -0.281096 5.53611e-15 -1.43878 -0.281751 6.6988e-15 -1.4392 -0.282813 5.25227e-15 -1.43948 -0.28424 4.69562e-15 -1.43962 -0.285991 5.02349e-15 -1.43962 -0.288029 4.13934e-15 -1.4395 -0.290321 4.10386e-15 -1.43927 -0.292838 3.31685e-15 -1.43892 -0.295552 2.58732e-15 -0.891063 -0.196372 3.49648e-15 -0.930827 -0.204742 4.04787e-15 -0.969643 -0.214515 4.63099e-15 -1.00761 -0.225368 5.0459e-15 -1.04481 -0.237035 5.65026e-15 -1.0813 -0.249297 5.80717e-15 -1.11715 -0.261971 5.9734e-15 -1.1524 -0.274903 6.34463e-15 -1.18709 -0.287962 7.13286e-15 -1.22126 -0.30104 6.55997e-15 -1.25493 -0.314041 6.94567e-15 -1.28814 -0.326885 7.20956e-15 -1.3209 -0.339504 6.74357e-15 -1.35324 -0.351838 7.40467e-15 -1.38517 -0.363835 6.96179e-15 -1.40263 -0.368273 7.19668e-15 -1.40566 -0.365945 7.40558e-15 -1.4084 -0.364235 6.3903e-15 -1.41087 -0.363071 6.626e-15 -1.41309 -0.362389 6.3956e-15 -1.41507 -0.362132 6.18688e-15 -1.41684 -0.362249 5.11571e-15 -1.4184 -0.362693 5.35431e-15 -1.41978 -0.363425 4.80188e-15 -1.42097 -0.364405 3.00157e-15 -1.42199 -0.3656 3.79524e-15 -1.42286 -0.36698 3.33457e-15 -1.42357 -0.368516 2.54031e-15 -1.42414 -0.370185 3.32874e-15 -1.42458 -0.371961 1.85233e-15 -0.85406 -0.232494 3.48264e-15 -0.894523 -0.245582 3.97757e-15 -0.934001 -0.259588 4.57459e-15 -0.972585 -0.274262 4.88963e-15 -1.01035 -0.289401 5.28193e-15 -1.04736 -0.304833 5.80537e-15 -1.08367 -0.320414 6.05655e-15 -1.11933 -0.336024 6.37495e-15 -1.15438 -0.351561 6.31949e-15 -1.18884 -0.366939 6.57675e-15 -1.22275 -0.382083 6.64582e-15 -1.25614 -0.396931 6.61645e-15 -1.28902 -0.411427 6.96545e-15 -1.32143 -0.425525 7.62564e-15 -1.35337 -0.439185 7.46263e-15 -1.37126 -0.444867 6.56536e-15 -1.37519 -0.443302 6.80649e-15 -1.37879 -0.442194 6.52462e-15 -1.38211 -0.441483 6.09684e-15 -1.38514 -0.441115 6.12513e-15 -1.38791 -0.441044 6.10932e-15 -1.39043 -0.441228 5.50076e-15 -1.39273 -0.441627 5.31891e-15 -1.39481 -0.442207 4.72882e-15 -1.39669 -0.442939 4.65857e-15 -1.39837 -0.443793 3.7712e-15 -1.39986 -0.444744 4.12797e-15 -1.40119 -0.44577 3.71131e-15 -1.40234 -0.446849 3.31573e-15 -1.40334 -0.447963 2.96527e-15 -0.817699 -0.269259 3.31276e-15 -0.858526 -0.286471 3.58437e-15 -0.898346 -0.304211 3.97882e-15 -0.937243 -0.322288 4.41743e-15 -0.975288 -0.340542 4.6946e-15 -1.01254 -0.358842 4.90789e-15 -1.04905 -0.377077 5.55472e-15 -1.08486 -0.395153 5.51955e-15 -1.12001 -0.412991 5.80751e-15 -1.15453 -0.430522 5.66224e-15 -1.18845 -0.447691 5.70793e-15 -1.2218 -0.464448 6.02132e-15 -1.25459 -0.48075 5.87113e-15 -1.28685 -0.496563 5.90447e-15 -1.31859 -0.511854 6.02927e-15 -1.33669 -0.518771 5.77764e-15 -1.34128 -0.517989 4.96981e-15 -1.34552 -0.517523 5.83389e-15 -1.34944 -0.517323 5.05879e-15 -1.35306 -0.517348 4.92325e-15 -1.3564 -0.517558 4.7309e-15 -1.35947 -0.517918 4.56371e-15 -1.3623 -0.518399 4.45578e-15 -1.36488 -0.518971 3.92919e-15 -1.36724 -0.51961 3.43874e-15 -1.36938 -0.520293 2.57231e-15 -1.37131 -0.520999 2.93896e-15 -1.37305 -0.521711 2.55069e-15 -1.3746 -0.52241 1.80628e-15 -1.37597 -0.523083 1.48157e-15 -0.781735 -0.30642 3.07809e-15 -0.822637 -0.327254 3.21541e-15 -0.862523 -0.3483 3.81423e-15 -0.90147 -0.369411 3.85786e-15 -0.939541 -0.390467 4.14487e-15 -0.976791 -0.411367 4.39626e-15 -1.01327 -0.432025 4.68628e-15 -1.04901 -0.45237 4.5378e-15 -1.08405 -0.472341 4.77388e-15 -1.11842 -0.491887 5.01247e-15 -1.15214 -0.510965 4.99911e-15 -1.18525 -0.529536 5.42182e-15 -1.21776 -0.547569 5.22069e-15 -1.24969 -0.565039 4.78057e-15 -1.28105 -0.581921 4.86141e-15 -1.29918 -0.59005 4.90637e-15 -1.3042 -0.590052 4.72583e-15 -1.30887 -0.590246 4.45705e-15 -1.3132 -0.590595 4.03394e-15 -1.31722 -0.591065 4.40773e-15 -1.32094 -0.591623 4.28406e-15 -1.32438 -0.592244 3.63804e-15 -1.32755 -0.592901 3.80308e-15 -1.33046 -0.593574 3.07977e-15 -1.33313 -0.594242 3.44193e-15 -1.33557 -0.594887 2.76615e-15 -1.33778 -0.595493 2.94956e-15 -1.33977 -0.596046 2.1582e-15 -1.34156 -0.596532 2.1842e-15 -1.34315 -0.59694 1.84916e-15 -0.745976 -0.343787 2.64404e-15 -0.786699 -0.367811 2.85656e-15 -0.826408 -0.391789 3.04021e-15 -0.865172 -0.415613 3.37524e-15 -0.903046 -0.439191 3.55637e-15 -0.940079 -0.462447 3.71745e-15 -0.976312 -0.485318 3.8223e-15 -1.01178 -0.50775 4.07336e-15 -1.04652 -0.529698 4.06456e-15 -1.08056 -0.551125 4.12679e-15 -1.11391 -0.571997 4.32376e-15 -1.14661 -0.592288 4.15362e-15 -1.17867 -0.611975 4.80229e-15 -1.21011 -0.631038 4.46066e-15 -1.24094 -0.649463 4.49471e-15 -1.25892 -0.658773 4.43976e-15 -1.2642 -0.659544 3.94647e-15 -1.26911 -0.660402 4.28124e-15 -1.27369 -0.661317 3.83769e-15 -1.27793 -0.662262 3.49997e-15 -1.28188 -0.663215 3.65501e-15 -1.28552 -0.664153 3.28806e-15 -1.28889 -0.665058 3.19021e-15 -1.29198 -0.665912 2.69447e-15 -1.29482 -0.666701 2.63788e-15 -1.2974 -0.66741 2.61071e-15 -1.29975 -0.668029 1.9752e-15 -1.30187 -0.668545 2.19132e-15 -1.30376 -0.66895 1.62841e-15 -1.30544 -0.669233 1.47648e-15 -0.710277 -0.381213 2.34827e-15 -0.75059 -0.408052 2.58767e-15 -0.789902 -0.434636 2.77017e-15 -0.828271 -0.460884 2.91083e-15 -0.865745 -0.486731 2.94138e-15 -0.902366 -0.512123 3.11233e-15 -0.938172 -0.537013 3.37641e-15 -0.973193 -0.561362 3.39564e-15 -1.00746 -0.58514 3.4206e-15 -1.04099 -0.608318 3.27638e-15 -1.07382 -0.630874 3.31239e-15 -1.10595 -0.65279 3.47506e-15 -1.13742 -0.674051 3.64042e-15 -1.16823 -0.694643 3.29866e-15 -1.19839 -0.714556 3.47861e-15 -1.21607 -0.725006 3.17877e-15 -1.22144 -0.726519 3.34101e-15 -1.22644 -0.728028 3.0762e-15 -1.23111 -0.729511 3.20572e-15 -1.23544 -0.730947 2.82903e-15 -1.23947 -0.73232 2.50713e-15 -1.24319 -0.733613 2.63806e-15 -1.24662 -0.734813 2.56305e-15 -1.24977 -0.735907 2.08823e-15 -1.25266 -0.736885 2.06146e-15 -1.25528 -0.737736 1.4236e-15 -1.25766 -0.738453 1.41898e-15 -1.25979 -0.739026 1.62256e-15 -1.26169 -0.73945 1.25926e-15 -1.26336 -0.739719 1.28928e-15 -0.674525 -0.418587 1.85932e-15 -0.714213 -0.447911 1.97216e-15 -0.752923 -0.476807 1.9625e-15 -0.7907 -0.505223 2.13039e-15 -0.827587 -0.533111 2.31808e-15 -0.863619 -0.560435 2.33614e-15 -0.898825 -0.587163 2.52804e-15 -0.933234 -0.613271 2.41352e-15 -0.96687 -0.638737 2.47461e-15 -0.999754 -0.663543 2.47986e-15 -1.0319 -0.687675 2.55226e-15 -1.06334 -0.711123 2.56928e-15 -1.09408 -0.733876 2.5069e-15 -1.12413 -0.755927 2.49948e-15 -1.15351 -0.777271 2.41336e-15 -1.17075 -0.788812 2.46442e-15 -1.17606 -0.791031 2.4646e-15 -1.18103 -0.793167 2.12152e-15 -1.18566 -0.795205 2.41705e-15 -1.18996 -0.797132 2.1884e-15 -1.19394 -0.798934 1.88978e-15 -1.19763 -0.800603 1.93187e-15 -1.20102 -0.802127 1.64984e-15 -1.20413 -0.8035 1.39052e-15 -1.20697 -0.804713 1.26485e-15 -1.20954 -0.805761 1.05335e-15 -1.21186 -0.806638 1.24718e-15 -1.21392 -0.807339 1.06521e-15 -1.21574 -0.80786 8.90581e-16 -1.21732 -0.808198 7.35318e-16 -0.638639 -0.455825 1.31541e-15 -0.677495 -0.48734 1.43881e-15 -0.715405 -0.518288 1.42484e-15 -0.752405 -0.548635 1.49915e-15 -0.788528 -0.578354 1.60608e-15 -0.8238 -0.607422 1.59729e-15 -0.858248 -0.635821 1.66339e-15 -0.891893 -0.663536 1.82441e-15 -0.924753 -0.690555 1.82866e-15 -0.956849 -0.716869 1.8979e-15 -0.988194 -0.742471 1.87772e-15 -1.01881 -0.767355 1.89472e-15 -1.04869 -0.791518 1.94578e-15 -1.07788 -0.814958 1.84265e-15 -1.10636 -0.837671 1.84033e-15 -1.12305 -0.850247 1.80368e-15 -1.12819 -0.853125 1.63947e-15 -1.133 -0.855853 1.75788e-15 -1.13747 -0.858423 1.57267e-15 -1.14163 -0.860825 1.63766e-15 -1.14549 -0.863054 1.3479e-15 -1.14904 -0.865102 1.19648e-15 -1.15231 -0.866965 1.16117e-15 -1.1553 -0.868638 1.45915e-15 -1.15801 -0.870116 1.21964e-15 -1.16045 -0.871397 8.98862e-16 -1.16263 -0.872477 7.00294e-16 -1.16456 -0.873355 8.00821e-16 -1.16624 -0.874029 9.05343e-16 -1.16768 -0.874498 5.50606e-16 -0.602558 -0.49287 8.08024e-16 -0.640378 -0.52631 8.61862e-16 -0.677296 -0.559069 9.27582e-16 -0.713338 -0.591132 1.04073e-15 -0.748525 -0.622487 1.08745e-15 -0.782877 -0.653122 1.17328e-15 -0.816413 -0.683032 1.20934e-15 -0.849148 -0.712209 1.26229e-15 -0.881098 -0.740652 1.33257e-15 -0.912276 -0.768357 1.26562e-15 -0.942694 -0.795323 1.34135e-15 -0.972365 -0.821551 1.37553e-15 -1.0013 -0.84704 1.36401e-15 -1.02951 -0.871792 1.29468e-15 -1.057 -0.895809 1.37922e-15 -1.07303 -0.909359 1.35817e-15 -1.07789 -0.91284 1.44272e-15 -1.08244 -0.916115 1.29435e-15 -1.08667 -0.91918 1.12262e-15 -1.0906 -0.922033 1.20247e-15 -1.09424 -0.924671 1.16357e-15 -1.09759 -0.92709 1.06866e-15 -1.10066 -0.92929 9.82189e-16 -1.10345 -0.931268 9.1478e-16 -1.10598 -0.933024 9.56781e-16 -1.10824 -0.934558 7.8208e-16 -1.11024 -0.935868 7.27239e-16 -1.11199 -0.936955 6.32241e-16 -1.11349 -0.93782 6.36023e-16 -1.11474 -0.938461 5.49976e-16 -0.566245 -0.529683 2.84286e-16 -0.602823 -0.564805 2.88322e-16 -0.638557 -0.599155 3.24109e-16 -0.673458 -0.632732 3.44849e-16 -0.70754 -0.665538 3.55332e-16 -0.740813 -0.697574 3.66297e-16 -0.773288 -0.72884 3.7463e-16 -0.804975 -0.759342 4.28794e-16 -0.835883 -0.78908 4.00334e-16 -0.866021 -0.81806 4.20483e-16 -0.895398 -0.846285 4.27438e-16 -0.924021 -0.873759 4.53923e-16 -0.9519 -0.900488 4.33821e-16 -0.979041 -0.926475 4.75723e-16 -1.00545 -0.951727 4.62282e-16 -1.02074 -0.966183 4.21866e-16 -1.02522 -0.970201 4.62339e-16 -1.02941 -0.973968 4.29755e-16 -1.03332 -0.977484 4.31018e-16 -1.03695 -0.98075 4.12683e-16 -1.04031 -0.983766 3.39471e-16 -1.04339 -0.986535 3.87392e-16 -1.04621 -0.989056 3.50891e-16 -1.04876 -0.991333 3.40679e-16 -1.05105 -0.993366 3.33991e-16 -1.05309 -0.995156 3.29872e-16 -1.05488 -0.996707 2.76329e-16 -1.05641 -0.998019 2.50241e-16 -1.05771 -0.999094 2.50479e-16 -1.05876 -0.999936 2.29021e-16 -0.529683 -0.566245 -2.68493e-16 -0.564805 -0.602823 -2.5793e-16 -0.599155 -0.638557 -2.7688e-16 -0.632732 -0.673458 -2.83059e-16 -0.665538 -0.70754 -2.71376e-16 -0.697574 -0.740813 -2.89235e-16 -0.72884 -0.773288 -2.78604e-16 -0.759342 -0.804975 -2.7492e-16 -0.78908 -0.835883 -2.50968e-16 -0.81806 -0.866021 -2.64593e-16 -0.846285 -0.895398 -2.48878e-16 -0.873759 -0.924021 -2.34021e-16 -0.900488 -0.9519 -2.20109e-16 -0.926475 -0.979041 -2.07212e-16 -0.951727 -1.00545 -2.50363e-16 -0.966183 -1.02074 -1.98035e-16 -0.970201 -1.02522 -2.07696e-16 -0.973968 -1.02941 -1.80629e-16 -0.977484 -1.03332 -1.20541e-16 -0.98075 -1.03695 -8.47928e-17 -0.983766 -1.04031 -1.05828e-16 -0.986535 -1.04339 -6.05328e-17 -0.989056 -1.04621 -5.51696e-17 -0.991333 -1.04876 -5.88859e-17 -0.993366 -1.05105 -2.80328e-18 -0.995156 -1.05309 4.47834e-17 -0.996707 -1.05488 6.3402e-17 -0.998019 -1.05641 1.07883e-16 -0.999094 -1.05771 1.00258e-16 -0.999936 -1.05876 1.37412e-16 -0.49287 -0.602558 -8.08024e-16 -0.52631 -0.640378 -8.61862e-16 -0.559069 -0.677296 -9.27582e-16 -0.591132 -0.713338 -1.04073e-15 -0.622487 -0.748525 -1.08745e-15 -0.653122 -0.782877 -1.17328e-15 -0.683032 -0.816413 -1.20934e-15 -0.712209 -0.849148 -1.26229e-15 -0.740652 -0.881098 -1.33257e-15 -0.768357 -0.912276 -1.26562e-15 -0.795323 -0.942694 -1.34135e-15 -0.821551 -0.972365 -1.37553e-15 -0.84704 -1.0013 -1.36401e-15 -0.871792 -1.02951 -1.29468e-15 -0.895809 -1.057 -1.37922e-15 -0.909359 -1.07303 -1.35817e-15 -0.91284 -1.07789 -1.35954e-15 -0.916115 -1.08244 -1.29435e-15 -0.91918 -1.08667 -1.12262e-15 -0.922033 -1.0906 -1.13779e-15 -0.924671 -1.09424 -1.10095e-15 -0.92709 -1.09759 -9.54736e-16 -0.92929 -1.10066 -9.82189e-16 -0.931268 -1.10345 -9.1478e-16 -0.933024 -1.10598 -7.92428e-16 -0.934558 -1.10824 -7.29159e-16 -0.935868 -1.11024 -6.27704e-16 -0.936955 -1.11199 -5.35389e-16 -0.93782 -1.11349 -5.41794e-16 -0.938461 -1.11474 -3.66651e-16 -0.455825 -0.638639 -1.31541e-15 -0.48734 -0.677495 -1.44587e-15 -0.518288 -0.715405 -1.41766e-15 -0.548635 -0.752405 -1.68047e-15 -0.578354 -0.788528 -1.5837e-15 -0.607422 -0.8238 -1.76504e-15 -0.635821 -0.858248 -1.66339e-15 -0.663536 -0.891893 -1.72686e-15 -0.690555 -0.924753 -1.85901e-15 -0.716869 -0.956849 -1.83594e-15 -0.742471 -0.988194 -1.90927e-15 -0.767355 -1.01881 -1.89472e-15 -0.791518 -1.04869 -1.70894e-15 -0.814958 -1.07788 -1.68145e-15 -0.837671 -1.10636 -1.58643e-15 -0.850247 -1.12305 -1.51796e-15 -0.853125 -1.12819 -1.54124e-15 -0.855853 -1.133 -1.54459e-15 -0.858423 -1.13747 -1.36258e-15 -0.860825 -1.14163 -1.30397e-15 -0.863054 -1.14549 -1.48451e-15 -0.865102 -1.14904 -1.08964e-15 -0.866965 -1.15231 -1.27655e-15 -0.868638 -1.1553 -9.18332e-16 -0.870116 -1.15801 -8.09086e-16 -0.871397 -1.16045 -7.94027e-16 -0.872477 -1.16263 -6.95837e-16 -0.873355 -1.16456 -6.10396e-16 -0.874029 -1.16624 -2.48144e-16 -0.874498 -1.16768 -3.67071e-16 -0.418587 -0.674525 -1.85932e-15 -0.447911 -0.714213 -1.97216e-15 -0.476807 -0.752923 -1.9625e-15 -0.505223 -0.7907 -2.13039e-15 -0.533111 -0.827587 -2.31808e-15 -0.560435 -0.863619 -2.33614e-15 -0.587163 -0.898825 -2.63796e-15 -0.613271 -0.933234 -2.52201e-15 -0.638737 -0.96687 -2.47461e-15 -0.663543 -0.999754 -2.47986e-15 -0.687675 -1.0319 -2.55226e-15 -0.711123 -1.06334 -2.67048e-15 -0.733876 -1.09408 -2.5069e-15 -0.755927 -1.12413 -2.65793e-15 -0.777271 -1.15351 -2.41336e-15 -0.788812 -1.17075 -2.46442e-15 -0.791031 -1.17606 -2.4646e-15 -0.793167 -1.18103 -2.26421e-15 -0.795205 -1.18566 -2.41705e-15 -0.797132 -1.18996 -2.1884e-15 -0.798934 -1.19394 -1.88978e-15 -0.800603 -1.19763 -1.93187e-15 -0.802127 -1.20102 -1.8749e-15 -0.8035 -1.20413 -1.60927e-15 -0.804713 -1.20697 -1.26485e-15 -0.805761 -1.20954 -1.05335e-15 -0.806638 -1.21186 -1.24718e-15 -0.807339 -1.21392 -1.06521e-15 -0.80786 -1.21574 -8.90581e-16 -0.808198 -1.21732 -7.35318e-16 -0.381213 -0.710277 -2.34827e-15 -0.408052 -0.75059 -2.58767e-15 -0.434636 -0.789902 -2.77017e-15 -0.460884 -0.828271 -2.91083e-15 -0.486731 -0.865745 -2.94138e-15 -0.512123 -0.902366 -3.11233e-15 -0.537013 -0.938172 -3.37641e-15 -0.561362 -0.973193 -3.39564e-15 -0.58514 -1.00746 -3.4206e-15 -0.608318 -1.04099 -3.27638e-15 -0.630874 -1.07382 -3.31239e-15 -0.65279 -1.10595 -3.47506e-15 -0.674051 -1.13742 -3.64042e-15 -0.694643 -1.16823 -3.29866e-15 -0.714556 -1.19839 -3.47861e-15 -0.725006 -1.21607 -3.17877e-15 -0.726519 -1.22144 -3.34101e-15 -0.728028 -1.22644 -3.0762e-15 -0.729511 -1.23111 -3.20572e-15 -0.730947 -1.23544 -2.82903e-15 -0.73232 -1.23947 -2.50713e-15 -0.733613 -1.24319 -2.63806e-15 -0.734813 -1.24662 -2.56305e-15 -0.735907 -1.24977 -2.08823e-15 -0.736885 -1.25266 -2.06146e-15 -0.737736 -1.25528 -1.4236e-15 -0.738453 -1.25766 -1.41898e-15 -0.739026 -1.25979 -1.62256e-15 -0.73945 -1.26169 -1.25926e-15 -0.739719 -1.26336 -1.28928e-15 -0.343787 -0.745976 -2.73521e-15 -0.367811 -0.786699 -2.94665e-15 -0.391789 -0.826408 -3.15937e-15 -0.415613 -0.865172 -3.43118e-15 -0.439191 -0.903046 -3.70291e-15 -0.462447 -0.940079 -3.86185e-15 -0.485318 -0.976312 -3.69731e-15 -0.50775 -1.01178 -3.87143e-15 -0.529698 -1.04652 -4.06456e-15 -0.551125 -1.08056 -4.07162e-15 -0.571997 -1.11391 -4.0725e-15 -0.592288 -1.14661 -4.34299e-15 -0.611975 -1.17867 -4.36572e-15 -0.631038 -1.21011 -4.15344e-15 -0.649463 -1.24094 -4.26325e-15 -0.658773 -1.25892 -4.14353e-15 -0.659544 -1.2642 -4.23342e-15 -0.660402 -1.26911 -3.76784e-15 -0.661317 -1.27369 -3.87647e-15 -0.662262 -1.27793 -3.46483e-15 -0.663215 -1.28188 -3.62349e-15 -0.664153 -1.28552 -3.26015e-15 -0.665058 -1.28889 -2.97866e-15 -0.665912 -1.29198 -2.67371e-15 -0.666701 -1.29482 -2.63788e-15 -0.66741 -1.2974 -2.597e-15 -0.668029 -1.29975 -1.77983e-15 -0.668545 -1.30187 -1.99967e-15 -0.66895 -1.30376 -1.81983e-15 -0.669233 -1.30544 -1.66104e-15 -0.30642 -0.781735 -3.07809e-15 -0.327254 -0.822637 -3.21541e-15 -0.3483 -0.862523 -3.81423e-15 -0.369411 -0.90147 -3.85786e-15 -0.390467 -0.939541 -4.14487e-15 -0.411367 -0.976791 -4.39626e-15 -0.432025 -1.01327 -4.68628e-15 -0.45237 -1.04901 -4.5378e-15 -0.472341 -1.08405 -4.77388e-15 -0.491887 -1.11842 -5.01247e-15 -0.510965 -1.15214 -4.99911e-15 -0.529536 -1.18525 -5.42182e-15 -0.547569 -1.21776 -5.22069e-15 -0.565039 -1.24969 -4.78057e-15 -0.581921 -1.28105 -4.86141e-15 -0.59005 -1.29918 -4.90637e-15 -0.590052 -1.3042 -4.72583e-15 -0.590246 -1.30887 -4.45705e-15 -0.590595 -1.3132 -4.03394e-15 -0.591065 -1.31722 -4.40773e-15 -0.591623 -1.32094 -4.28406e-15 -0.592244 -1.32438 -3.63804e-15 -0.592901 -1.32755 -3.80308e-15 -0.593574 -1.33046 -3.07977e-15 -0.594242 -1.33313 -3.44193e-15 -0.594887 -1.33557 -2.76615e-15 -0.595493 -1.33778 -2.94956e-15 -0.596046 -1.33977 -2.1582e-15 -0.596532 -1.34156 -2.1842e-15 -0.59694 -1.34315 -1.84916e-15 -0.269259 -0.817699 -3.31276e-15 -0.286471 -0.858526 -3.50397e-15 -0.304211 -0.898346 -4.10468e-15 -0.322288 -0.937243 -4.35197e-15 -0.340542 -0.975288 -4.75454e-15 -0.358842 -1.01254 -4.96606e-15 -0.377077 -1.04905 -5.36774e-15 -0.395153 -1.08486 -5.0959e-15 -0.412991 -1.12001 -5.49498e-15 -0.430522 -1.15453 -5.71205e-15 -0.447691 -1.18845 -5.70793e-15 -0.464448 -1.2218 -5.718e-15 -0.48075 -1.25459 -5.82845e-15 -0.496563 -1.28685 -5.90447e-15 -0.511854 -1.31859 -6.02927e-15 -0.518771 -1.33669 -5.74249e-15 -0.517989 -1.34128 -4.96981e-15 -0.517523 -1.34552 -5.77381e-15 -0.517323 -1.34944 -5.08627e-15 -0.517348 -1.35306 -4.87341e-15 -0.517558 -1.3564 -4.7309e-15 -0.517918 -1.35947 -4.58353e-15 -0.518399 -1.3623 -4.49035e-15 -0.518971 -1.36488 -3.91443e-15 -0.51961 -1.36724 -3.42649e-15 -0.520293 -1.36938 -2.55278e-15 -0.520999 -1.37131 -2.93167e-15 -0.521711 -1.37305 -2.54585e-15 -0.52241 -1.3746 -1.80387e-15 -0.523083 -1.37597 -1.48157e-15 -0.232494 -0.85406 -3.40693e-15 -0.245582 -0.894523 -3.88587e-15 -0.259588 -0.934001 -4.32091e-15 -0.274262 -0.972585 -5.03266e-15 -0.289401 -1.01035 -5.4193e-15 -0.304833 -1.04736 -5.67038e-15 -0.320414 -1.08367 -6.12573e-15 -0.336024 -1.11933 -6.1782e-15 -0.351561 -1.15438 -6.30694e-15 -0.366939 -1.18884 -6.6345e-15 -0.382083 -1.22275 -6.32673e-15 -0.396931 -1.25614 -6.61645e-15 -0.411427 -1.28902 -7.22682e-15 -0.425525 -1.32143 -7.36565e-15 -0.439185 -1.35337 -6.85805e-15 -0.444867 -1.37126 -7.41027e-15 -0.443302 -1.37519 -7.13e-15 -0.442194 -1.37879 -6.83598e-15 -0.441483 -1.38211 -6.06495e-15 -0.441115 -1.38514 -6.32628e-15 -0.441044 -1.38791 -6.10932e-15 -0.441228 -1.39043 -5.91681e-15 -0.441627 -1.39273 -5.31891e-15 -0.442207 -1.39481 -5.20013e-15 -0.442939 -1.39669 -5.08361e-15 -0.443793 -1.39837 -4.59816e-15 -0.444744 -1.39986 -4.51328e-15 -0.44577 -1.40119 -4.10274e-15 -0.446849 -1.40234 -3.32415e-15 -0.447963 -1.40334 -2.96527e-15 -0.196372 -0.891063 -3.49648e-15 -0.204742 -0.930827 -4.04787e-15 -0.214515 -0.969643 -4.63099e-15 -0.225368 -1.00761 -5.0459e-15 -0.237035 -1.04481 -5.65026e-15 -0.249297 -1.0813 -5.80717e-15 -0.261971 -1.11715 -5.9734e-15 -0.274903 -1.1524 -6.34463e-15 -0.287962 -1.18709 -7.13286e-15 -0.30104 -1.22126 -6.55997e-15 -0.314041 -1.25493 -6.94567e-15 -0.326885 -1.28814 -7.20956e-15 -0.339504 -1.3209 -6.74357e-15 -0.351838 -1.35324 -7.40467e-15 -0.363835 -1.38517 -6.96179e-15 -0.368273 -1.40263 -7.19668e-15 -0.365945 -1.40566 -7.40558e-15 -0.364235 -1.4084 -6.3903e-15 -0.363071 -1.41087 -6.626e-15 -0.362389 -1.41309 -6.3956e-15 -0.362132 -1.41507 -6.18688e-15 -0.362249 -1.41684 -5.11571e-15 -0.362693 -1.4184 -5.35431e-15 -0.363425 -1.41978 -4.80188e-15 -0.364405 -1.42097 -3.00157e-15 -0.3656 -1.42199 -3.79524e-15 -0.36698 -1.42286 -3.33457e-15 -0.368516 -1.42357 -2.54031e-15 -0.370185 -1.42414 -3.32874e-15 -0.371961 -1.42458 -1.85233e-15 -0.161214 -0.92903 -3.30973e-15 -0.164156 -0.96769 -3.81337e-15 -0.169109 -1.00546 -4.68207e-15 -0.175652 -1.04246 -5.12529e-15 -0.183442 -1.07874 -5.8152e-15 -0.192197 -1.1144 -6.34146e-15 -0.201682 -1.14948 -6.91411e-15 -0.211703 -1.18402 -7.19538e-15 -0.222096 -1.21808 -7.25842e-15 -0.23272 -1.25168 -7.27004e-15 -0.243458 -1.28485 -7.91605e-15 -0.254209 -1.31763 -7.9392e-15 -0.264886 -1.35002 -8.58099e-15 -0.275415 -1.38206 -8.55794e-15 -0.285729 -1.41375 -8.28799e-15 -0.288933 -1.4305 -7.69609e-15 -0.285882 -1.43236 -8.18334e-15 -0.283634 -1.43396 -7.4124e-15 -0.282104 -1.43533 -7.60811e-15 -0.281215 -1.43648 -6.36257e-15 -0.2809 -1.43743 -7.09039e-15 -0.281096 -1.43819 -6.42494e-15 -0.281751 -1.43878 -6.6988e-15 -0.282813 -1.4392 -5.65282e-15 -0.28424 -1.43948 -5.09004e-15 -0.285991 -1.43962 -4.58993e-15 -0.288029 -1.43962 -4.54512e-15 -0.290321 -1.4395 -3.70308e-15 -0.292838 -1.43927 -3.69074e-15 -0.295552 -1.43892 -2.95693e-15 -0.127442 -0.968383 -2.92364e-15 -0.124092 -1.00544 -3.89733e-15 -0.123523 -1.04171 -4.6872e-15 -0.125184 -1.0773 -5.33557e-15 -0.128627 -1.11227 -5.98874e-15 -0.133491 -1.14671 -6.62047e-15 -0.139476 -1.18065 -6.98871e-15 -0.146333 -1.21415 -7.10734e-15 -0.153856 -1.24725 -7.5681e-15 -0.161869 -1.27996 -7.96661e-15 -0.170224 -1.31233 -8.60201e-15 -0.178796 -1.34438 -8.91009e-15 -0.187475 -1.37612 -8.66702e-15 -0.19617 -1.40757 -8.40633e-15 -0.2048 -1.43875 -8.13425e-15 -0.206799 -1.45451 -8.18911e-15 -0.203093 -1.45488 -8.36167e-15 -0.200403 -1.45504 -8.00475e-15 -0.198628 -1.455 -7.72621e-15 -0.197676 -1.45479 -7.42626e-15 -0.197468 -1.45442 -6.69609e-15 -0.197933 -1.45389 -6.49965e-15 -0.199005 -1.45323 -5.87088e-15 -0.200628 -1.45244 -6.13426e-15 -0.202749 -1.45153 -5.56936e-15 -0.205321 -1.45052 -5.44838e-15 -0.208302 -1.4494 -3.76359e-15 -0.211653 -1.44818 -3.71898e-15 -0.21534 -1.44688 -3.31457e-15 -0.219329 -1.4455 -2.943e-15 -0.0956152 -1.00968 -2.2902e-15 -0.0849042 -1.04451 -3.47342e-15 -0.0779632 -1.0787 -4.4375e-15 -0.0740599 -1.11235 -5.51365e-15 -0.0726104 -1.14552 -6.21297e-15 -0.0731439 -1.17828 -7.16939e-15 -0.0752766 -1.21067 -7.31058e-15 -0.0786926 -1.24272 -8.48215e-15 -0.0831295 -1.27446 -8.45929e-15 -0.0883678 -1.30593 -8.74555e-15 -0.0942226 -1.33715 -8.5412e-15 -0.100537 -1.36813 -8.21901e-15 -0.107177 -1.39889 -9.4673e-15 -0.114028 -1.42944 -9.84732e-15 -0.12099 -1.45981 -9.5983e-15 -0.121843 -1.47424 -9.87751e-15 -0.117584 -1.47275 -8.93095e-15 -0.114584 -1.47111 -8.58753e-15 -0.112723 -1.46933 -7.77937e-15 -0.111897 -1.46743 -7.50217e-15 -0.112011 -1.4654 -7.71035e-15 -0.112981 -1.46327 -7.46467e-15 -0.114733 -1.46105 -5.91326e-15 -0.117201 -1.45873 -6.18701e-15 -0.120323 -1.45633 -6.02565e-15 -0.124046 -1.45385 -4.65394e-15 -0.12832 -1.45131 -4.56301e-15 -0.133102 -1.4487 -3.72106e-15 -0.138349 -1.44603 -3.67859e-15 -0.144027 -1.4433 -2.18978e-15 -0.0664936 -1.05369 -1.34508e-15 -0.04707 -1.08546 -2.72608e-15 -0.0327055 -1.11684 -4.11409e-15 -0.0224153 -1.14789 -5.2225e-15 -0.0154259 -1.17867 -6.09576e-15 -0.0111215 -1.20919 -6.90659e-15 -0.00900588 -1.2395 -7.42508e-15 -0.00867485 -1.26962 -7.98735e-15 -0.00979574 -1.29957 -8.69011e-15 -0.0120924 -1.32937 -8.75582e-15 -0.0153338 -1.35902 -9.43249e-15 -0.019325 -1.38854 -9.22682e-15 -0.0239008 -1.41795 -9.86518e-15 -0.0289197 -1.44724 -9.34462e-15 -0.0342605 -1.47643 -9.72012e-15 -0.0340584 -1.48915 -9.44986e-15 -0.029389 -1.4854 -8.5469e-15 -0.0262567 -1.48157 -8.71799e-15 -0.0245219 -1.47766 -7.88756e-15 -0.0240616 -1.47368 -7.60888e-15 -0.024767 -1.46964 -6.40734e-15 -0.0265415 -1.46554 -6.19795e-15 -0.029299 -1.46139 -6.90872e-15 -0.0329625 -1.45719 -5.84358e-15 -0.0374632 -1.45295 -5.25846e-15 -0.0427388 -1.44867 -4.71844e-15 -0.0487336 -1.44436 -3.8227e-15 -0.0553968 -1.44001 -2.97761e-15 -0.0626827 -1.43563 -1.44645e-15 -0.0705496 -1.43122 -2.16334e-15 -0.0411246 -1.10144 0 -0.011238 -1.12906 -1.92751e-15 0.0118751 -1.15667 -3.49447e-15 0.0295639 -1.18429 -4.99314e-15 0.0428688 -1.21191 -6.29945e-15 0.0526051 -1.23952 -7.16978e-15 0.0594204 -1.26714 -8.34387e-15 0.0638361 -1.29475 -9.12305e-15 0.0662762 -1.32237 -9.8709e-15 0.0670895 -1.34999 -9.62873e-15 0.0665652 -1.3776 -1.09751e-14 0.0649453 -1.40522 -1.07377e-14 0.0624339 -1.43284 -1.08195e-14 0.0592042 -1.46045 -1.12011e-14 0.055404 -1.48807 -1.21552e-14 0.0565263 -1.49864 -1.06868e-14 0.0614126 -1.49216 -1.08207e-14 0.0644442 -1.48569 -1.09412e-14 0.0657837 -1.47921 -9.54295e-15 0.0655736 -1.47274 -1.0178e-14 0.0639394 -1.46626 -8.89429e-15 0.0609919 -1.45979 -8.59819e-15 0.0568296 -1.45332 -8.31877e-15 0.0515402 -1.44684 -7.63075e-15 0.0452018 -1.44037 -6.57236e-15 0.0378847 -1.43389 -6.37277e-15 0.0296518 -1.42742 -4.63747e-15 0.02056 -1.42094 -4.50239e-15 0.0106606 -1.41447 -4.37382e-15 -5.31413e-16 -1.40799 -3.54275e-15 -0.941686 -0.0351506 -0.0010488 -0.965281 -0.00959706 -0.000872337 -0.988877 0.0101652 -0.000718674 -1.01247 0.0252896 -0.000583663 -1.03607 0.0366656 -0.0004641 -1.05966 0.0449903 -0.000357479 -1.08326 0.0508174 -0.000261806 -1.10685 0.0545925 -0.000175477 -1.13045 0.0566783 -9.71867e-05 -1.15404 0.0573729 -2.58624e-05 -1.17764 0.0569236 3.9386e-05 -1.20123 0.0555373 9.93032e-05 -1.22483 0.0533884 0.000154517 -1.24842 0.050625 0.00020556 -1.27202 0.0473736 0.000252888 -1.28104 0.0483293 0.000489191 -1.2755 0.0525029 0.000895238 -1.26996 0.0550916 0.00127464 -1.26441 0.0562346 0.00162993 -1.25887 0.0560533 0.00196335 -1.25332 0.0546551 0.00227685 -1.24778 0.0521348 0.00257216 -1.24224 0.0485763 0.00285082 -1.23669 0.0440546 0.00311421 -1.23115 0.0386365 0.00336354 -1.22561 0.0323819 0.00359991 -1.22006 0.0253448 0.0038243 -1.21452 0.0175735 0.00403761 -1.20897 0.00911203 0.00424064 -1.20343 -4.54206e-16 0.0044341 -0.900867 -0.0568507 -0.000916095 -0.928013 -0.0402408 -0.000764654 -0.954829 -0.0279568 -0.00063175 -0.981364 -0.0191564 -0.000514233 -1.00766 -0.0131785 -0.000409626 -1.03374 -0.00949645 -0.000315958 -1.05964 -0.00768614 -0.00023164 -1.08538 -0.0074019 -0.000155375 -1.11097 -0.00835935 -8.60962e-05 -1.13642 -0.0103224 -2.29175e-05 -1.16176 -0.0130935 3.49042e-05 -1.18699 -0.016506 8.7996e-05 -1.21211 -0.0204186 0.000136891 -1.23714 -0.0247105 0.000182044 -1.26208 -0.0292779 0.000223848 -1.27295 -0.0291074 0.000432756 -1.26973 -0.0251178 0.000791409 