<?xml version="1.0"?> 
<VTKFile type="StructuredGrid" version="0.1"> 
<StructuredGrid WholeExtent="0 14 0 14 0 29"> 
<Piece Extent="0 14 0 14 0 29"> 
<PointData>
<DataArray type="Float32" Name="hfield" format="ascii" NumberOfComponents="3"> 
185.368 -8.06722e-10 -3.04738e-10 174.35 15.463 -3.5563e-10 162.99 30.5841 -4.06608e-10 151.288 45.3633 -4.57533e-10 139.244 59.8006 -5.0845e-10 126.858 73.896 -5.59382e-10 114.13 87.6494 -6.10299e-10 101.061 101.061 -6.61203e-10 87.6494 114.13 -6.72401e-10 73.896 126.858 -6.83642e-10 59.8006 139.244 -6.94882e-10 45.3633 151.288 -7.06081e-10 30.5841 162.99 -7.17307e-10 15.463 174.35 -7.28534e-10 2.14641e-10 185.368 -7.39703e-10 174.35 -15.463 -2.30317e-10 162.697 -6.73049e-10 -2.80638e-10 150.75 15.17 -3.30916e-10 138.511 30.0468 -3.81265e-10 125.979 44.6306 -4.31572e-10 113.154 58.9214 -4.81858e-10 100.035 72.919 -5.32172e-10 86.6236 86.6236 -5.82486e-10 72.919 100.035 -5.96254e-10 58.9214 113.154 -6.10009e-10 44.6306 125.979 -6.23721e-10 30.0468 138.511 -6.37504e-10 15.17 150.75 -6.51216e-10 2.05731e-10 162.697 -6.64985e-10 -15.463 174.35 -6.78754e-10 162.99 -30.5841 -1.55924e-10 150.75 -15.17 -2.05622e-10 138.267 -5.60448e-10 -2.5532e-10 125.539 14.9257 -3.04963e-10 112.567 29.6072 -3.54687e-10 99.3513 44.0445 -4.04376e-10 85.8909 58.2375 -4.54058e-10 72.1864 72.1864 -5.03754e-10 58.2375 85.8909 -5.20044e-10 44.0445 99.3513 -5.3632e-10 29.6072 112.567 -5.52588e-10 14.9257 125.539 -5.68885e-10 2.00401e-10 138.267 -5.85182e-10 -15.17 150.75 -6.01437e-10 -30.5841 162.99 -6.17748e-10 151.288 -45.3633 -8.15033e-11 138.511 -30.0468 -1.30598e-10 125.539 -14.9257 -1.79646e-10 112.372 -4.67764e-10 -2.28738e-10 99.0094 14.7303 -2.77795e-10 85.4513 29.2653 -3.26881e-10 71.6979 43.6049 -3.75945e-10 57.7491 57.7491 -4.25009e-10 43.6049 71.6979 -4.43841e-10 29.2653 85.4513 -4.62652e-10 14.7303 99.0094 -4.8147e-10 2.00643e-10 112.372 -5.00309e-10 -14.9257 125.539 -5.1912e-10 -30.0468 138.511 -5.37974e-10 -45.3633 151.288 -5.56799e-10 139.244 -59.8006 -7.11087e-12 125.979 -44.6306 -5.55465e-11 112.567 -29.6072 -1.03979e-10 99.0094 -14.7303 -1.5246e-10 85.3048 -3.94124e-10 -2.0091e-10 71.4537 14.5838 -2.49357e-10 57.456 29.0211 -2.97824e-10 43.3118 43.3118 -3.46263e-10 29.0211 57.456 -3.67649e-10 14.5838 71.4537 -3.88998e-10 2.07834e-10 85.3048 -4.10351e-10 -14.7303 99.0094 -4.31733e-10 -29.6072 112.567 -4.53086e-10 -44.6306 125.979 -4.7444e-10 -59.8006 139.244 -4.95807e-10 126.858 -73.896 6.73384e-11 113.154 -58.9214 1.94629e-11 99.3513 -44.0445 -2.83274e-11 85.4513 -29.2653 -7.61932e-11 71.4537 -14.5838 -1.24043e-10 57.3583 -3.38048e-10 -1.71868e-10 43.1653 14.4861 -2.19704e-10 28.8745 28.8745 -2.67539e-10 14.4861 43.1653 -2.9144e-10 2.23977e-10 57.3583 -3.15337e-10 -14.5838 71.4537 -3.39226e-10 -29.2653 85.4513 -3.63136e-10 -44.0445 99.3513 -3.87024e-10 -58.9214 113.154 -4.1092e-10 -73.896 126.858 -4.34829e-10 114.13 -87.6494 1.41738e-10 100.035 -72.919 9.45095e-11 85.8909 -58.2375 4.72997e-11 71.6979 -43.6049 5.97342e-14 57.456 -29.0211 -4.71527e-11 43.1653 -14.4861 -9.43599e-11 28.8257 -2.98485e-10 -1.4159e-10 14.4373 14.4373 -1.88811e-10 2.50616e-10 28.8257 -2.15242e-10 -14.4861 43.1653 -2.41677e-10 -29.0211 57.456 -2.6809e-10 -43.6049 71.6979 -2.94538e-10 -58.2375 85.8909 -3.20972e-10 -72.919 100.035 -3.47392e-10 -87.6494 114.13 -3.7383e-10 101.061 -101.061 2.16123e-10 86.6236 -86.6236 1.69536e-10 72.1864 -72.1864 1.22949e-10 57.7491 -57.7491 7.63474e-11 43.3118 -43.3118 2.97318e-11 28.8745 -28.8745 -1.68697e-11 14.4373 -14.4373 -6.34711e-11 2.8956e-10 -2.74326e-10 -1.10074e-10 -14.4373 14.4373 -1.39043e-10 -28.8745 28.8745 -1.68016e-10 -43.3118 43.3118 -1.96982e-10 -57.7491 57.7491 -2.25933e-10 -72.1864 72.1864 -2.54914e-10 -86.6236 86.6236 -2.83894e-10 -101.061 101.061 -3.1286e-10 87.6494 -114.13 2.13795e-10 72.919 -100.035 1.81916e-10 58.2375 -85.8909 1.49988e-10 43.6049 -71.6979 1.18105e-10 29.0211 -57.456 8.62013e-11 14.4861 -43.1653 5.42837e-11 2.57081e-10 -28.8257 2.23821e-11 -14.4373 -14.4373 -9.52483e-12 -28.8257 -2.59931e-10 -3.59206e-11 -43.1653 14.4861 -6.2311e-11 -57.456 29.0211 -8.87148e-11 -71.6979 43.6049 -1.15115e-10 -85.8909 58.2375 -1.41487e-10 -100.035 72.919 -1.67887e-10 -114.13 87.6494 -1.94291e-10 73.896 -126.858 2.11472e-10 58.9214 -113.154 1.94246e-10 44.0445 -99.3513 1.77058e-10 29.2653 -85.4513 1.59851e-10 14.5838 -71.4537 1.42649e-10 2.25015e-10 -57.3583 1.25432e-10 -14.4861 -43.1653 1.08237e-10 -28.8745 -28.8745 9.10205e-11 -43.1653 -14.4861 6.71871e-11 -57.3583 -2.43858e-10 4.33715e-11 -71.4537 14.5838 1.95683e-11 -85.4513 29.2653 -4.27747e-12 -99.3513 44.0445 -2.8102e-11 -113.154 58.9214 -5.19123e-11 -126.858 73.896 -7.57296e-11 59.8006 -139.244 2.09099e-10 44.6306 -125.979 2.06619e-10 29.6072 -112.567 2.04093e-10 14.7303 -99.0094 2.01581e-10 1.95968e-10 -85.3048 1.99087e-10 -14.5838 -71.4537 1.96572e-10 -29.0211 -57.456 1.94085e-10 -43.3118 -43.3118 1.91577e-10 -57.456 -29.0211 1.70328e-10 -71.4537 -14.5838 1.49079e-10 -85.3048 -2.25896e-10 1.2782e-10 -99.0094 14.7303 1.06596e-10 -112.567 29.6072 8.52936e-11 -125.979 44.6306 6.4091e-11 -139.244 59.8006 4.28457e-11 45.3633 -151.288 2.06711e-10 30.0468 -138.511 2.18952e-10 14.9257 -125.539 2.31161e-10 1.72051e-10 -112.372 2.43361e-10 -14.7303 -99.0094 2.55547e-10 -29.2653 -85.4513 2.67754e-10 -43.6049 -71.6979 2.7994e-10 -57.7491 -57.7491 2.92133e-10 -71.6979 -43.6049 2.73452e-10 -85.4513 -29.2653 2.54772e-10 -99.0094 -14.7303 2.36085e-10 -112.372 -2.06114e-10 2.17412e-10 -125.539 14.9257 1.98725e-10 -138.511 30.0468 1.80108e-10 -151.288 45.3633 1.61378e-10 30.5841 -162.99 2.04437e-10 15.17 -150.75 2.31308e-10 1.55609e-10 -138.267 2.58186e-10 -14.9257 -125.539 2.85105e-10 -29.6072 -112.567 3.11971e-10 -44.0445 -99.3513 3.38872e-10 -58.2375 -85.8909 3.65773e-10 -72.1864 -72.1864 3.92689e-10 -85.8909 -58.2375 3.76556e-10 -99.3513 -44.0445 3.60465e-10 -112.567 -29.6072 3.44357e-10 -125.539 -14.9257 3.28257e-10 -138.267 -1.84059e-10 3.12184e-10 -150.75 15.17 2.96069e-10 -162.99 30.5841 2.79925e-10 15.463 -174.35 2.02078e-10 1.49427e-10 -162.697 2.43702e-10 -15.17 -150.75 2.8529e-10 -30.0468 -138.511 3.26821e-10 -44.6306 -125.979 3.68445e-10 -58.9214 -113.154 4.10026e-10 -72.919 -100.035 4.51635e-10 -86.6236 -86.6236 4.93202e-10 -100.035 -72.919 4.79695e-10 -113.154 -58.9214 4.66173e-10 -125.979 -44.6306 4.5263e-10 -138.511 -30.0468 4.39144e-10 -150.75 -15.17 4.25501e-10 -162.697 -1.60071e-10 4.12058e-10 -174.35 15.463 3.98501e-10 1.55069e-10 -185.368 1.99805e-10 -15.463 -174.35 2.56033e-10 -30.5841 -162.99 3.12291e-10 -45.3633 -151.288 3.68615e-10 -59.8006 -139.244 4.2489e-10 -73.896 -126.858 4.81222e-10 -87.6494 -114.13 5.37511e-10 -101.061 -101.061 5.93758e-10 -114.13 -87.6494 5.82823e-10 -126.858 -73.896 5.71859e-10 -139.244 -59.8006 5.60888e-10 -151.288 -45.3633 5.49932e-10 -162.99 -30.5841 5.38961e-10 -174.35 -15.463 5.2799e-10 -185.368 -1.33696e-10 5.17048e-10 173.711 -7.96668e-10 -3.80441e-10 163.4 14.5045 -4.23003e-10 152.766 28.6865 -4.65561e-10 141.81 42.5459 -5.08179e-10 130.53 56.0828 -5.50713e-10 118.929 69.2971 -5.93291e-10 107.005 82.1889 -6.35857e-10 94.7581 94.7581 -6.78459e-10 82.1889 107.005 -6.83974e-10 69.2971 118.929 -6.89483e-10 56.0828 130.53 -6.95016e-10 42.5459 141.81 -7.00514e-10 28.6865 152.766 -7.06019e-10 14.5045 163.4 -7.11573e-10 2.03926e-10 173.711 -7.17043e-10 163.4 -14.5045 -2.9956e-10 152.489 -6.65435e-10 -3.42303e-10 141.303 14.2281 -3.84924e-10 129.839 28.1796 -4.27594e-10 118.1 41.8548 -4.70313e-10 106.083 55.2534 -5.12972e-10 93.7905 68.3756 -5.55667e-10 81.2213 81.2213 -5.98358e-10 68.3756 93.7905 -6.07455e-10 55.2534 106.083 -6.16537e-10 41.8548 118.1 -6.25634e-10 28.1796 129.839 -6.34737e-10 14.2281 141.303 -6.43785e-10 1.96952e-10 152.489 -6.52946e-10 -14.5045 163.4 -6.6198e-10 152.766 -28.6865 -2.18714e-10 141.303 -14.2281 -2.61566e-10 129.609 -5.53597e-10 -3.04289e-10 117.685 13.9977 -3.47079e-10 105.53 27.7649 -3.89903e-10 93.1454 41.3018 -4.32683e-10 80.5301 54.6083 -4.75494e-10 67.6844 67.6844 -5.18279e-10 54.6083 80.5301 -5.30942e-10 41.3018 93.1454 -5.4362e-10 27.7649 105.53 -5.56251e-10 13.9977 117.685 -5.68975e-10 1.94121e-10 129.609 -5.81605e-10 -14.2281 141.303 -5.94298e-10 -28.6865 152.766 -6.06963e-10 141.81 -42.5459 -1.37861e-10 129.839 -28.1796 -1.80795e-10 117.685 -13.9977 -2.23653e-10 105.346 -4.6038e-10 -2.66563e-10 92.8228 13.8133 -3.09458e-10 80.1154 27.4424 -3.52373e-10 67.2236 40.8871 -3.95258e-10 54.1475 54.1475 -4.38167e-10 40.8871 67.2236 -4.54412e-10 27.4424 80.1154 -4.70647e-10 13.8133 92.8228 -4.86916e-10 1.97006e-10 105.346 -5.03175e-10 -13.9977 117.685 -5.19378e-10 -28.1796 129.839 -5.35661e-10 -42.5459 141.81 -5.51922e-10 130.53 -56.0828 -5.70113e-11 118.1 -41.8548 -1.00014e-10 105.53 -27.7649 -1.43004e-10 92.8228 -13.8133 -1.86039e-10 79.9771 -3.84653e-10 -2.2904e-10 66.9932 13.6751 -2.72054e-10 53.871 27.212 -3.15059e-10 40.6106 40.6106 -3.58072e-10 27.212 53.871 -3.77903e-10 13.6751 66.9932 -3.9772e-10 2.06699e-10 79.9771 -4.17542e-10 -13.8133 92.8228 -4.37376e-10 -27.7649 105.53 -4.57219e-10 -41.8548 118.1 -4.77046e-10 -56.0828 130.53 -4.9687e-10 118.929 -69.2971 2.38363e-11 106.083 -55.2534 -1.92984e-11 93.1454 -41.3018 -6.23883e-11 80.1154 -27.4424 -1.05499e-10 66.9932 -13.6751 -1.48622e-10 53.7789 -3.25327e-10 -1.9174e-10 40.4724 13.583 -2.34851e-10 27.0738 27.0738 -2.7798e-10 13.583 40.4724 -3.01375e-10 2.25053e-10 53.7789 -3.24782e-10 -13.6751 66.9932 -3.48193e-10 -27.4424 80.1154 -3.71614e-10 -41.3018 93.1454 -3.94985e-10 -55.2534 106.083 -4.18405e-10 -69.2971 118.929 -4.418e-10 107.005 -82.1889 1.0468e-10 93.7905 -68.3756 6.1475e-11 80.5301 -54.6083 1.82503e-11 67.2236 -40.8871 -2.49921e-11 53.871 -27.212 -6.82057e-11 40.4724 -13.583 -1.11433e-10 27.0277 -2.81478e-10 -1.54658e-10 13.5369 13.5369 -1.9788e-10 2.53202e-10 27.0277 -2.24865e-10 -13.583 40.4724 -2.51845e-10 -27.212 53.871 -2.7883e-10 -40.8871 67.2236 -3.05813e-10 -54.6083 80.5301 -3.32809e-10 -68.3756 93.7905 -3.59793e-10 -82.1889 107.005 -3.86768e-10 94.7581 -94.7581 1.8555e-10 81.2213 -81.2213 1.4223e-10 67.6844 -67.6844 9.88766e-11 54.1475 -54.1475 5.55388e-11 40.6106 -40.6106 1.22153e-11 27.0738 -27.0738 -3.11145e-11 13.5369 -13.5369 -7.44531e-11 2.92601e-10 -2.5187e-10 -1.17785e-10 -13.5369 13.5369 -1.48347e-10 -27.0738 27.0738 -1.78912e-10 -40.6106 40.6106 -2.09472e-10 -54.1475 54.1475 -2.4004e-10 -67.6844 67.6844 -2.7059e-10 -81.2213 81.2213 -3.01163e-10 -94.7581 94.7581 -3.31713e-10 82.1889 -107.005 1.87775e-10 68.3756 -93.7905 1.5764e-10 54.6083 -80.5301 1.27513e-10 40.8871 -67.2236 9.73981e-11 27.212 -53.871 6.7284e-11 13.583 -40.4724 3.71531e-11 2.67442e-10 -27.0277 7.0283e-12 -13.5369 -13.5369 -2.30929e-11 -27.0277 -2.38241e-10 -5.11354e-11 -40.4724 13.583 -7.91715e-11 -53.871 27.212 -1.07214e-10 -67.2236 40.8871 -1.35246e-10 -80.5301 54.6083 -1.6326e-10 -93.7905 68.3756 -1.91324e-10 -107.005 82.1889 -2.19388e-10 69.2971 -118.929 1.89973e-10 55.2534 -106.083 1.73049e-10 41.3018 -93.1454 1.56159e-10 27.4424 -80.1154 1.3923e-10 13.6751 -66.9932 1.22315e-10 2.4236e-10 -53.7789 1.05422e-10 -13.583 -40.4724 8.8503e-11 -27.0738 -27.0738 7.15956e-11 -40.4724 -13.583 4.60785e-11 -53.7789 -2.2305e-10 2.05677e-11 -66.9932 13.6751 -4.94554e-12 -80.1154 27.4424 -3.04628e-11 -93.1454 41.3018 -5.59809e-11 -106.083 55.2534 -8.14609e-11 -118.929 69.2971 -1.06989e-10 56.0828 -130.53 1.92155e-10 41.8548 -118.1 1.88455e-10 27.7649 -105.53 1.84758e-10 13.8133 -92.8228 1.81083e-10 2.19606e-10 -79.9771 1.7738e-10 -13.6751 -66.9932 1.73687e-10 -27.212 -53.871 1.69983e-10 -40.6106 -40.6106 1.66286e-10 -53.871 -27.212 1.43303e-10 -66.9932 -13.6751 1.20296e-10 -79.9771 -2.06299e-10 9.73076e-11 -92.8228 13.8133 7.4316e-11 -105.53 27.7649 5.13182e-11 -118.1 41.8548 2.83524e-11 -130.53 56.0828 5.34572e-12 42.5459 -141.81 1.94361e-10 28.1796 -129.839 2.03901e-10 13.9977 -117.685 2.13421e-10 2.01514e-10 -105.346 2.22916e-10 -13.8133 -92.8228 2.3243e-10 -27.4424 -80.1154 2.41962e-10 -40.8871 -67.2236 2.51457e-10 -54.1475 -54.1475 2.60991e-10 -67.2236 -40.8871 2.40516e-10 -80.1154 -27.4424 2.20047e-10 -92.8228 -13.8133 1.99585e-10 -105.346 -1.87875e-10 1.79103e-10 -117.685 13.9977 1.58616e-10 -129.839 28.1796 1.38175e-10 -141.81 42.5459 1.17698e-10 28.6865 -152.766 1.96561e-10 14.2281 -141.303 2.19274e-10 1.89856e-10 -129.609 2.42012e-10 -13.9977 -117.685 2.64727e-10 -27.7649 -105.53 2.87475e-10 -41.3018 -93.1454 3.10207e-10 -54.6083 -80.5301 3.32942e-10 -67.6844 -67.6844 3.55657e-10 -80.5301 -54.6083 3.37706e-10 -93.1454 -41.3018 3.19775e-10 -105.53 -27.7649 3.0185e-10 -117.685 -13.9977 2.83906e-10 -129.609 -1.6766e-10 2.6594e-10 -141.303 14.2281 2.48038e-10 -152.766 28.6865 2.30075e-10 14.5045 -163.4 1.98811e-10 1.87047e-10 -152.489 2.34751e-10 -14.2281 -141.303 2.70652e-10 -28.1796 -129.839 3.06585e-10 -41.8548 -118.1 3.42551e-10 -55.2534 -106.083 3.78464e-10 -68.3756 -93.7905 4.14427e-10 -81.2213 -81.2213 4.50356e-10 -93.7905 -68.3756 4.34932e-10 -106.083 -55.2534 4.19504e-10 -118.1 -41.8548 4.04093e-10 -129.839 -28.1796 3.88694e-10 -141.303 -14.2281 3.73235e-10 -152.489 -1.45889e-10 3.57865e-10 -163.4 14.5045 3.42392e-10 1.95669e-10 -173.711 2.01042e-10 -14.5045 -163.4 2.50149e-10 -28.6865 -152.766 2.99267e-10 -42.5459 -141.81 3.48481e-10 -56.0828 -130.53 3.97595e-10 -69.2971 -118.929 4.4673e-10 -82.1889 -107.005 4.95892e-10 -94.7581 -94.7581 5.45038e-10 -107.005 -82.1889 5.32156e-10 -118.929 -69.2971 5.19257e-10 -130.53 -56.0828 5.06374e-10 -141.81 -42.5459 4.93451e-10 -152.766 -28.6865 4.80541e-10 -163.4 -14.5045 4.67682e-10 -173.711 -1.22327e-10 4.54741e-10 162.055 -7.86955e-10 -4.49313e-10 152.45 13.546 -4.84113e-10 142.542 26.7889 -5.18885e-10 132.331 39.7285 -5.53733e-10 121.817 52.365 -5.88531e-10 111 64.6983 -6.23316e-10 99.8791 76.7284 -6.58153e-10 88.4554 88.4554 -6.92952e-10 76.7284 99.8791 -6.93649e-10 64.6983 111 -6.94326e-10 52.365 121.817 -6.94997e-10 39.7285 132.331 -6.95694e-10 26.7889 142.542 -6.96404e-10 13.546 152.45 -6.97065e-10 1.93211e-10 162.055 -6.97747e-10 152.45 -13.546 -3.62631e-10 142.282 -6.5771e-10 -3.98206e-10 131.855 13.2862 -4.33768e-10 121.167 26.3124 -4.69386e-10 110.22 39.0789 -5.04983e-10 99.0129 51.5854 -5.40546e-10 87.5458 63.8321 -5.76149e-10 75.8189 75.8189 -6.11733e-10 63.8321 87.5458 -6.16839e-10 51.5854 99.0129 -6.21962e-10 39.0789 110.22 -6.27109e-10 26.3124 121.167 -6.32213e-10 13.2862 131.855 -6.37327e-10 1.88314e-10 142.282 -6.4247e-10 -13.546 152.45 -6.47578e-10 142.542 -26.7889 -2.75978e-10 131.855 -13.2862 -3.12365e-10 120.951 -5.46879e-10 -3.4871e-10 109.83 13.0696 -3.8507e-10 98.4931 25.9226 -4.21446e-10 86.9395 38.5591 -4.57802e-10 75.1692 50.979 -4.94162e-10 63.1824 63.1824 -5.30504e-10 50.979 75.1692 -5.40058e-10 38.5591 86.9395 -5.49622e-10 25.9226 98.4931 -5.59142e-10 13.0696 109.83 -5.68725e-10 1.88104e-10 120.951 -5.78272e-10 -13.2862 131.855 -5.87812e-10 -26.7889 142.542 -5.97417e-10 132.331 -39.7285 -1.89353e-10 121.167 -26.3124 -2.26478e-10 109.83 -13.0696 -2.63629e-10 98.3199 -4.52955e-10 -3.00734e-10 86.6363 12.8964 -3.37878e-10 74.7794 25.6195 -3.75022e-10 62.7493 38.1693 -4.12147e-10 50.5459 50.5459 -4.49271e-10 38.1693 62.7493 -4.63282e-10 25.6195 74.7794 -4.77263e-10 12.8964 86.6363 -4.9125e-10 1.93332e-10 98.3199 -5.05241e-10 -13.0696 109.83 -5.19228e-10 -26.3124 121.167 -5.33197e-10 -39.7285 132.331 -5.47213e-10 121.817 -52.365 -1.02657e-10 110.22 -39.0789 -1.40576e-10 98.4931 -25.9226 -1.78485e-10 86.6363 -12.8964 -2.16416e-10 74.6495 -3.75211e-10 -2.54324e-10 62.5327 12.7664 -2.9223e-10 50.2861 25.4029 -3.30146e-10 37.9094 37.9094 -3.68056e-10 25.4029 50.2861 -3.86481e-10 12.7664 62.5327 -4.04906e-10 2.05722e-10 74.6495 -4.23346e-10 -12.8964 86.6363 -4.41742e-10 -25.9226 98.4931 -4.60162e-10 -39.0789 110.22 -4.78607e-10 -52.365 121.817 -4.97048e-10 111 -64.6983 -1.60144e-11 99.0129 -51.5854 -5.47249e-11 86.9395 -38.5591 -9.33793e-11 74.7794 -25.6195 -1.32064e-10 62.5327 -12.7664 -1.70781e-10 50.1994 -3.12756e-10 -2.0946e-10 37.7795 12.6798 -2.48143e-10 25.273 25.273 -2.86834e-10 12.6798 37.7795 -3.09696e-10 2.26025e-10 50.1994 -3.32557e-10 -12.7664 62.5327 -3.55398e-10 -25.6195 74.7794 -3.78283e-10 -38.5591 86.9395 -4.01139e-10 -51.5854 99.0129 -4.23977e-10 -64.6983 111 -4.4684e-10 99.8791 -76.7284 7.06335e-11 87.5458 -63.8321 3.11845e-11 75.1692 -50.979 -8.26972e-12 62.7493 -38.1693 -4.77538e-11 50.2861 -25.4029 -8.72156e-11 37.7795 -12.6798 -1.26681e-10 25.2297 -2.64414e-10 -1.66145e-10 12.6365 12.6365 -2.0561e-10 2.55784e-10 25.2297 -2.32909e-10 -12.6798 37.7795 -2.60205e-10 -25.4029 50.2861 -2.8749e-10 -38.1693 62.7493 -3.14803e-10 -50.979 75.1692 -3.42088e-10 -63.8321 87.5458 -3.6937e-10 -76.7284 99.8791 -3.96677e-10 88.4554 -88.4554 1.57302e-10 75.8189 -75.8189 1.1706e-10 63.1824 -63.1824 7.68067e-11 50.5459 -50.5459 3.65786e-11 37.9094 -37.9094 -3.66727e-12 25.273 -25.273 -4.39043e-11 12.6365 -12.6365 -8.41439e-11 2.95813e-10 -2.29299e-10 -1.24387e-10 -12.6365 12.6365 -1.56118e-10 -25.273 25.273 -1.8785e-10 -37.9094 37.9094 -2.19575e-10 -50.5459 50.5459 -2.51313e-10 -63.1824 63.1824 -2.83033e-10 -75.8189 75.8189 -3.14756e-10 -88.4554 88.4554 -3.46501e-10 76.7284 -99.8791 1.63291e-10 63.8321 -87.5458 1.34869e-10 50.979 -75.1692 1.06484e-10 38.1693 -62.7493 7.80786e-11 25.4029 -50.2861 4.96615e-11 12.6798 -37.7795 2.12483e-11 2.77963e-10 -25.2297 -7.16259e-12 -12.6365 -12.6365 -3.55753e-11 -25.2297 -2.16537e-10 -6.47696e-11 -37.7795 12.6798 -9.39658e-11 -50.2861 25.4029 -1.23148e-10 -62.7493 38.1693 -1.52362e-10 -75.1692 50.979 -1.81537e-10 -87.5458 63.8321 -2.10729e-10 -99.8791 76.7284 -2.39936e-10 64.6983 -111 1.69287e-10 51.5854 -99.0129 1.52727e-10 38.5591 -86.9395 1.36123e-10 25.6195 -74.7794 1.19547e-10 12.7664 -62.5327 1.02973e-10 2.59757e-10 -50.1994 8.63936e-11 -12.6798 -37.7795 6.9818e-11 -25.273 -25.273 5.32372e-11 -37.7795 -12.6798 2.6579e-11 -50.1994 -2.02245e-10 -8.63788e-14 -62.5327 12.7664 -2.67366e-11 -74.7794 25.6195 -5.34028e-11 -86.9395 38.5591 -8.00655e-11 -99.0129 51.5854 -1.06709e-10 -111 64.6983 -1.33361e-10 52.365 -121.817 1.75294e-10 39.0789 -110.22 1.70564e-10 25.9226 -98.4931 1.65786e-10 12.8964 -86.6363 1.61061e-10 2.43418e-10 -74.6495 1.56292e-10 -12.7664 -62.5327 1.51543e-10 -25.4029 -50.2861 1.46791e-10 -37.9094 -37.9094 1.42045e-10 -50.2861 -25.4029 1.17915e-10 -62.5327 -12.7664 9.37926e-11 -74.6495 -1.86592e-10 6.96831e-11 -86.6363 12.8964 4.55471e-11 -98.4931 25.9226 2.14305e-11 -110.22 39.0789 -2.67178e-12 -121.817 52.365 -2.67955e-11 39.7285 -132.331 1.81286e-10 26.3124 -121.167 1.88362e-10 13.0696 -109.83 1.95459e-10 2.30795e-10 -98.3199 2.02529e-10 -12.8964 -86.6363 2.09621e-10 -25.6195 -74.7794 2.16714e-10 -38.1693 -62.7493 2.23769e-10 -50.5459 -50.5459 2.30859e-10 -62.7493 -38.1693 2.09276e-10 -74.7794 -25.6195 1.87688e-10 -86.6363 -12.8964 1.66112e-10 -98.3199 -1.69578e-10 1.44517e-10 -109.83 13.0696 1.22928e-10 -121.167 26.3124 1.01347e-10 -132.331 39.7285 7.9759e-11 26.7889 -142.542 1.87328e-10 13.2862 -131.855 2.06198e-10 2.24196e-10 -120.951 2.25088e-10 -13.0696 -109.83 2.44047e-10 -25.9226 -98.4931 2.62937e-10 -38.5591 -86.9395 2.81843e-10 -50.979 -75.1692 3.00748e-10 -63.1824 -63.1824 3.19679e-10 -75.1692 -50.979 3.006e-10 -86.9395 -38.5591 2.8157e-10 -98.4931 -25.9226 2.62532e-10 -109.83 -13.0696 2.43461e-10 -120.951 -1.51267e-10 2.24437e-10 -131.855 13.2862 2.05373e-10 -142.542 26.7889 1.86324e-10 13.546 -152.45 1.93284e-10 2.25249e-10 -142.282 2.24066e-10 -13.2862 -131.855 2.54751e-10 -26.3124 -121.167 2.85506e-10 -39.0789 -110.22 3.16271e-10 -51.5854 -99.0129 3.46989e-10 -63.8321 -87.5458 3.77721e-10 -75.8189 -75.8189 4.08468e-10 -87.5458 -63.8321 3.91941e-10 -99.0129 -51.5854 3.75458e-10 -110.22 -39.0789 3.58941e-10 -121.167 -26.3124 3.4242e-10 -131.855 -13.2862 3.25903e-10 -142.282 -1.31593e-10 3.09428e-10 -152.45 13.546 2.92911e-10 2.36042e-10 -162.055 1.99312e-10 -13.546 -152.45 2.4186e-10 -26.7889 -142.542 2.84444e-10 -39.7285 -132.331 3.26982e-10 -52.365 -121.817 3.69587e-10 -64.6983 -111 4.12146e-10 -76.7284 -99.8791 4.54715e-10 -88.4554 -88.4554 4.97281e-10 -99.8791 -76.7284 4.83313e-10 -111 -64.6983 4.69332e-10 -121.817 -52.365 4.55343e-10 -132.331 -39.7285 4.41403e-10 -142.542 -26.7889 4.27411e-10 -152.45 -13.546 4.13411e-10 -162.055 -1.10845e-10 3.99412e-10 150.398 -7.76907e-10 -5.11368e-10 141.5 12.5875 -5.39016e-10 132.319 24.8912 -5.66568e-10 122.853 36.9111 -5.94192e-10 113.104 48.6472 -6.2185e-10 103.07 60.0995 -6.49451e-10 92.7534 71.268 -6.77087e-10 82.1526 82.1526 -7.0471e-10 71.268 92.7534 -7.01446e-10 60.0995 103.07 -6.98147e-10 48.6472 113.104 -6.94862e-10 36.9111 122.853 -6.91606e-10 24.8912 132.319 -6.88321e-10 12.5875 141.5 -6.85043e-10 1.82496e-10 150.398 -6.81765e-10 141.5 -12.5875 -4.19509e-10 132.075 -6.50255e-10 -4.48551e-10 122.407 12.3443 -4.7752e-10 112.495 24.4453 -5.0655e-10 102.341 36.303 -5.3558e-10 91.9425 47.9174 -5.64577e-10 81.3012 59.2886 -5.93585e-10 70.4165 70.4165 -6.22592e-10 59.2886 81.3012 -6.24421e-10 47.9174 91.9425 -6.2625e-10 36.303 102.341 -6.28076e-10 24.4453 112.495 -6.29887e-10 12.3443 122.407 -6.31705e-10 1.79656e-10 132.075 -6.33552e-10 -12.5875 141.5 -6.35384e-10 132.319 -24.8912 -3.2775e-10 122.407 -12.3443 -3.58133e-10 112.293 -5.40015e-10 -3.88494e-10 101.976 12.1415 -4.18884e-10 91.456 24.0803 -4.49309e-10 80.7335 35.8164 -4.79681e-10 69.8084 47.3498 -5.10096e-10 58.6804 58.6804 -5.40475e-10 47.3498 69.8084 -5.47425e-10 35.8164 80.7335 -5.54343e-10 24.0803 91.456 -5.61264e-10 12.1415 101.976 -5.68217e-10 1.81615e-10 112.293 -5.75131e-10 -12.3443 122.407 -5.82053e-10 -24.8912 132.319 -5.8896e-10 122.853 -36.9111 -2.35927e-10 112.495 -24.4453 -2.67689e-10 101.976 -12.1415 -2.99449e-10 91.2938 -4.45468e-10 -3.31239e-10 80.4497 11.9794 -3.63007e-10 69.4434 23.7965 -3.94804e-10 58.275 35.4515 -4.26593e-10 46.9443 46.9443 -4.58354e-10 35.4515 58.275 -4.704e-10 23.7965 69.4434 -4.82435e-10 11.9794 80.4497 -4.94481e-10 1.89736e-10 91.2938 -5.06512e-10 -12.1415 101.976 -5.18565e-10 -24.4453 112.495 -5.30604e-10 -36.9111 122.853 -5.42628e-10 113.104 -48.6472 -1.44054e-10 102.341 -36.303 -1.77232e-10 91.456 -24.0803 -2.10389e-10 80.4497 -11.9794 -2.43579e-10 69.3218 -3.65851e-10 -2.7674e-10 58.0723 11.8577 -3.09904e-10 46.7011 23.5938 -3.43069e-10 35.2083 35.2083 -3.76241e-10 23.5938 46.7011 -3.93383e-10 11.8577 58.0723 -4.10533e-10 2.04631e-10 69.3218 -4.27687e-10 -11.9794 80.4497 -4.44822e-10 -24.0803 91.456 -4.61978e-10 -36.303 102.341 -4.79134e-10 -48.6472 113.104 -4.96304e-10 103.07 -60.0995 -5.22622e-11 91.9425 -47.9174 -8.6803e-11 80.7335 -35.8164 -1.21357e-10 69.4434 -23.7965 -1.55908e-10 58.0723 -11.8577 -1.90464e-10 46.62 -3.00119e-10 -2.25016e-10 35.0866 11.7766 -2.59566e-10 23.4722 23.4722 -2.94118e-10 11.7766 35.0866 -3.16375e-10 2.27155e-10 46.62 -3.38631e-10 -11.8577 58.0723 -3.60891e-10 -23.7965 69.4434 -3.83152e-10 -35.8164 80.7335 -4.05397e-10 -47.9174 91.9425 -4.27656e-10 -60.0995 103.07 -4.49915e-10 92.7534 -71.268 3.95593e-11 81.3012 -59.2886 3.62059e-12 69.8084 -47.3498 -3.23004e-11 58.275 -35.4515 -6.82334e-11 46.7011 -23.5938 -1.04183e-10 35.0866 -11.7766 -1.40118e-10 23.4316 -2.4729e-10 -1.7606e-10 11.7361 11.7361 -2.11997e-10 2.58357e-10 23.4316 -2.39367e-10 -11.7766 35.0866 -2.66723e-10 -23.5938 46.7011 -2.94099e-10 -35.4515 58.275 -3.21474e-10 -47.3498 69.8084 -3.48833e-10 -59.2886 81.3012 -3.76196e-10 -71.268 92.7534 -4.03553e-10 82.1526 -82.1526 1.31382e-10 70.4165 -70.4165 9.40682e-11 58.6804 -58.6804 5.67403e-11 46.9443 -46.9443 1.94161e-11 35.2083 -35.2083 -1.79118e-11 23.4722 -23.4722 -5.52308e-11 11.7361 -11.7361 -9.2556e-11 2.98968e-10 -2.06782e-10 -1.29878e-10 -11.7361 11.7361 -1.62353e-10 -23.4722 23.4722 -1.94827e-10 -35.2083 35.2083 -2.27303e-10 -46.9443 46.9443 -2.59772e-10 -58.6804 58.6804 -2.92258e-10 -70.4165 70.4165 -3.24717e-10 -82.1526 82.1526 -3.57196e-10 71.268 -92.7534 1.40433e-10 59.2886 -81.3012 1.13637e-10 47.3498 -69.8084 8.68889e-11 35.4515 -58.275 6.01079e-11 23.5938 -46.7011 3.33381e-11 11.7766 -35.0866 6.57576e-12 2.88408e-10 -23.4316 -2.01981e-11 -11.7361 -11.7361 -4.69693e-11 -23.4316 -1.94873e-10 -7.68324e-11 -35.0866 11.7766 -1.06698e-10 -46.7011 23.5938 -1.36556e-10 -58.275 35.4515 -1.66422e-10 -69.8084 47.3498 -1.9628e-10 -81.3012 59.2886 -2.26127e-10 -92.7534 71.268 -2.56009e-10 60.0995 -103.07 1.49458e-10 47.9174 -91.9425 1.33239e-10 35.8164 -80.7335 1.1703e-10 23.7965 -69.4434 1.00817e-10 11.8577 -58.0723 8.45844e-11 2.77112e-10 -46.62 6.83681e-11 -11.7766 -35.0866 5.21465e-11 -23.4722 -23.4722 3.59374e-11 -35.0866 -11.7766 8.6846e-12 -46.62 -1.81519e-10 -1.85716e-11 -58.0723 11.8577 -4.58146e-11 -69.4434 23.7965 -7.30718e-11 -80.7335 35.8164 -1.00317e-10 -91.9425 47.9174 -1.27575e-10 -103.07 60.0995 -1.54817e-10 48.6472 -113.104 1.58484e-10 36.303 -102.341 1.52831e-10 24.0803 -91.456 1.47156e-10 11.9794 -80.4497 1.41511e-10 2.67093e-10 -69.3218 1.35837e-10 -11.8577 -58.0723 1.30183e-10 -23.5938 -46.7011 1.24513e-10 -35.2083 -35.2083 1.18846e-10 -46.7011 -23.5938 9.42026e-11 -58.0723 -11.8577 6.95594e-11 -69.3218 -1.66949e-10 4.49241e-11 -80.4497 11.9794 2.02835e-11 -91.456 24.0803 -4.36406e-12 -102.341 36.303 -2.89976e-11 -113.104 48.6472 -5.3624e-11 36.9111 -122.853 1.67542e-10 24.4453 -112.495 1.72423e-10 12.1415 -101.976 1.77311e-10 2.60112e-10 -91.2938 1.82197e-10 -11.9794 -80.4497 1.87084e-10 -23.7965 -69.4434 1.91987e-10 -35.4515 -58.275 1.96875e-10 -46.9443 -46.9443 2.01749e-10 -58.275 -35.4515 1.79729e-10 -69.4434 -23.7965 1.5769e-10 -80.4497 -11.9794 1.35672e-10 -91.2938 -1.51282e-10 1.13632e-10 -101.976 12.1415 9.16096e-11 -112.495 24.4453 6.95731e-11 -122.853 36.9111 4.75368e-11 24.8912 -132.319 1.76578e-10 12.3443 -122.407 1.92021e-10 2.58106e-10 -112.293 2.07438e-10 -12.1415 -101.976 2.22893e-10 -24.0803 -91.456 2.38326e-10 -35.8164 -80.7335 2.53773e-10 -47.3498 -69.8084 2.69223e-10 -58.6804 -58.6804 2.84666e-10 -69.8084 -47.3498 2.65227e-10 -80.7335 -35.8164 2.45813e-10 -91.456 -24.0803 2.26434e-10 -101.976 -12.1415 2.0698e-10 -112.293 -1.34762e-10 1.87583e-10 -122.407 12.3443 1.68194e-10 -132.319 24.8912 1.48747e-10 12.5875 -141.5 1.856e-10 2.63025e-10 -132.075 2.11593e-10 -12.3443 -122.407 2.37586e-10 -24.4453 -112.495 2.63609e-10 -36.303 -102.341 2.89582e-10 -47.9174 -91.9425 3.15587e-10 -59.2886 -81.3012 3.41568e-10 -70.4165 -70.4165 3.6757e-10 -81.3012 -59.2886 3.50757e-10 -91.9425 -47.9174 3.33952e-10 -102.341 -36.303 3.17156e-10 -112.495 -24.4453 3.00328e-10 -122.407 -12.3443 2.83514e-10 -132.075 -1.1741e-10 2.66736e-10 -141.5 12.5875 2.49929e-10 2.76529e-10 -150.398 1.94679e-10 -12.5875 -141.5 2.31228e-10 -24.8912 -132.319 2.67709e-10 -36.9111 -122.853 3.04242e-10 -48.6472 -113.104 3.40852e-10 -60.0995 -103.07 3.77373e-10 -71.268 -92.7534 4.13927e-10 -82.1526 -82.1526 4.50487e-10 -92.7534 -71.268 4.36291e-10 -103.07 -60.0995 4.22082e-10 -113.104 -48.6472 4.07872e-10 -122.853 -36.9111 3.93705e-10 -132.319 -24.8912 3.79516e-10 -141.5 -12.5875 3.65292e-10 -150.398 -9.94902e-11 3.51111e-10 138.742 -7.6696e-10 -5.66592e-10 130.551 11.629 -5.87618e-10 122.095 22.9936 -6.08642e-10 113.375 34.0938 -6.29679e-10 104.39 44.9294 -6.50692e-10 95.1412 55.5007 -6.71701e-10 85.6278 65.8075 -6.92738e-10 75.8499 75.8499 -7.13747e-10 65.8075 85.6278 -7.07373e-10 55.5007 95.1412 -7.00985e-10 44.9294 104.39 -6.9461e-10 34.0938 113.375 -6.88194e-10 22.9936 122.095 -6.81827e-10 11.629 130.551 -6.75431e-10 1.71894e-10 138.742 -6.69064e-10 130.551 -11.629 -4.70257e-10 121.868 -6.4252e-10 -4.93199e-10 112.959 11.4024 -5.16159e-10 103.824 22.5781 -5.39116e-10 94.4612 33.5271 -5.62088e-10 84.8722 44.2494 -5.85028e-10 75.0565 54.7451 -6.08018e-10 65.0142 65.0142 -6.30972e-10 54.7451 75.0565 -6.3018e-10 44.2494 84.8722 -6.29403e-10 33.5271 94.4612 -6.28607e-10 22.5781 103.824 -6.2784e-10 11.4024 112.959 -6.2701e-10 1.70882e-10 121.868 -6.26257e-10 -11.629 130.551 -6.25447e-10 122.095 -22.9936 -3.73908e-10 112.959 -11.4024 -3.98811e-10 103.635 -5.33288e-10 -4.23691e-10 94.1212 11.2135 -4.48592e-10 84.4189 22.2381 -4.73488e-10 74.5276 33.0737 -4.98383e-10 64.4475 43.7206 -5.23297e-10 54.1785 54.1785 -5.48196e-10 43.7206 64.4475 -5.52987e-10 33.0737 74.5276 -5.5782e-10 22.2381 84.4189 -5.62597e-10 11.2135 94.1212 -5.67423e-10 1.75472e-10 103.635 -5.72221e-10 -11.4024 112.959 -5.77026e-10 -22.9936 122.095 -5.81846e-10 113.375 -34.0938 -2.7756e-10 103.824 -22.5781 -3.04418e-10 94.1212 -11.2135 -3.31238e-10 84.2678 -4.38146e-10 -3.58061e-10 74.2632 11.0624 -3.84898e-10 64.1075 21.9736 -4.11742e-10 53.8007 32.7337 -4.38555e-10 43.3428 43.3428 -4.65399e-10 32.7337 53.8007 -4.75805e-10 21.9736 64.1075 -4.86206e-10 11.0624 74.2632 -4.96629e-10 1.86162e-10 84.2678 -5.07006e-10 -11.2135 94.1212 -5.17411e-10 -22.5781 103.824 -5.27817e-10 -34.0938 113.375 -5.38243e-10 104.39 -44.9294 -1.81218e-10 94.4612 -33.5271 -2.09984e-10 84.4189 -22.2381 -2.38748e-10 74.2632 -11.0624 -2.67532e-10 63.9942 -3.56383e-10 -2.96301e-10 53.6118 10.949 -3.25069e-10 43.1161 21.7847 -3.53852e-10 32.5071 32.5071 -3.82616e-10 21.7847 43.1161 -3.98616e-10 10.949 53.6118 -4.14615e-10 2.03563e-10 63.9942 -4.30619e-10 -11.0624 74.2632 -4.46618e-10 -22.2381 84.4189 -4.62616e-10 -33.5271 94.4612 -4.78622e-10 -44.9294 104.39 -4.94634e-10 95.1412 -55.5007 -8.48767e-11 84.8722 -44.2494 -1.15596e-10 74.5276 -33.0737 -1.46285e-10 64.1075 -21.9736 -1.7699e-10 53.6118 -10.949 -2.07708e-10 43.0405 -2.87422e-10 -2.38409e-10 32.3937 10.8735 -2.6912e-10 21.6714 21.6714 -2.9983e-10 10.8735 32.3937 -3.21426e-10 2.28312e-10 43.0405 -3.43024e-10 -10.949 53.6118 -3.64621e-10 -21.9736 64.1075 -3.86229e-10 -33.0737 74.5276 -4.07806e-10 -44.2494 84.8722 -4.29412e-10 -55.5007 95.1412 -4.51018e-10 85.6278 -65.8075 1.14826e-11 75.0565 -54.7451 -2.11759e-11 64.4475 -43.7206 -5.38037e-11 53.8007 -32.7337 -8.6462e-11 43.1161 -21.7847 -1.19103e-10 32.3937 -10.8735 -1.51755e-10 21.6336 -2.30273e-10 -1.844e-10 10.8357 10.8357 -2.17045e-10 2.60949e-10 21.6336 -2.44243e-10 -10.8735 32.3937 -2.71433e-10 -21.7847 43.1161 -2.98648e-10 -32.7337 53.8007 -3.25817e-10 -43.7206 64.4475 -3.53023e-10 -54.7451 75.0565 -3.80226