<?xml version="1.0"?> 
<VTKFile type="StructuredGrid" version="0.1"> 
<StructuredGrid WholeExtent="0 14 0 14 0 29"> 
<Piece Extent="0 14 0 14 0 29"> 
<PointData>
<DataArray type="Float32" Name="hfield" format="ascii" NumberOfComponents="3"> 
-0.534083 22.6418 0.2039 -0.386676 25.1587 0.0797178 -0.396743 27.7797 -0.0187452 -0.49042 30.534 -0.0987294 -0.620196 33.4541 -0.164991 -0.753689 36.5778 -0.220781 -0.867308 39.9492 -0.268402 -0.942403 43.6215 -0.309524 -0.245039 45.078 -0.0937855 0.24378 46.8067 0.096049 0.557378 48.8578 0.264381 0.718992 51.2977 0.414668 0.743528 54.2154 0.549664 0.638324 57.7327 0.671589 0.402953 62.0201 0.782255 -1.16735 20.1169 0.152141 -1.83729 22.7902 0.0601222 -2.51849 25.5209 -0.0142367 -3.18733 28.3449 -0.0753047 -3.82962 31.3004 -0.126122 -4.43673 34.4293 -0.168868 -5.00332 37.7798 -0.20515 -5.52597 41.4088 -0.236173 -5.20946 43.1705 -0.0713762 -5.04896 45.2108 0.0728593 -5.02546 47.5939 0.199774 -5.12784 50.4042 0.311964 -5.35233 53.7551 0.411536 -5.70307 57.8033 0.500215 -6.19376 62.7732 0.579429 -2.2582 18.0495 0.114265 -3.47954 20.7662 0.0454159 -4.64082 23.5089 -0.0107925 -5.74315 26.3154 -0.0571899 -6.79064 29.225 -0.0958259 -7.7893 32.2808 -0.128221 -8.74645 35.5322 -0.155529 -9.67054 39.037 -0.178637 -9.71764 40.9375 -0.0538292 -9.89828 43.1163 0.0547568 -10.2079 45.6461 0.149546 -10.65 48.623 0.232511 -11.2372 52.1774 0.305275 -11.9938 56.4928 0.369183 -12.9609 61.8366 0.425361 -3.59229 16.2253 0.0845784 -5.2048 18.9298 0.0337198 -6.72297 21.6335 -0.00802616 -8.16178 24.3744 -0.0425522 -9.53671 27.192 -0.0712685 -10.8637 30.1291 -0.0952474 -12.1597 33.2344 -0.115318 -13.4427 36.5655 -0.132134 -13.8256 38.4903 -0.0397014 -14.3388 40.686 0.0402519 -14.9924 43.2296 0.109527 -15.806 46.2228 0.169605 -16.8122 49.8061 0.221719 -18.0621 54.1796 0.266899 -19.6358 59.6412 0.306017 -5.05658 14.5313 0.0599484 -6.95598 17.1925 0.0239374 -8.74738 19.828 -0.00570126 -10.4543 22.4755 -0.0302222 -12.0998 25.1739 -0.0505786 -13.7071 27.9653 -0.0675077 -15.3004 30.897 -0.0815884 -16.9065 34.0246 -0.0932816 -17.5937 35.8942 -0.0279567 -18.4203 38.0216 0.0282633 -19.4104 40.4837 0.076663 -20.6002 43.3834 0.118309 -22.0444 46.8638 0.154095 -23.8247 51.1319 0.184773 -26.0676 56.4999 0.210982 -6.58781 12.9043 0.0384563 -8.70294 15.5012 0.0153669 -10.7091 18.049 -0.00366051 -12.6352 20.585 -0.0193975 -14.5098 23.1472 -0.0324382 -16.3614 25.7763 -0.043247 -18.2205 28.5174 -0.0521924 -20.1206 31.4235 -0.0595704 -21.0811 33.1818 -0.0178183 -22.1973 35.1803 0.0179742 -23.5063 37.4927 0.048637 -25.061 40.2184 0.0748633 -26.9379 43.4969 0.0972362 -29.251 47.5317 0.11625 -32.1757 52.6338 0.132324 -8.15034 11.3086 0.0188021 -10.4312 13.8227 0.00751547 -12.6104 16.2665 -0.0017902 -14.7209 18.6767 -0.0094837 -16.7945 21.0899 -0.0158509 -18.8643 23.5446 -0.021117 -20.9656 26.0836 -0.0254613 -23.1379 28.7561 -0.0290289 -24.3421 30.3615 -0.00867215 -25.7223 32.1867 0.00873599 -27.3273 34.2993 0.0236035 -29.2254 36.7914 0.036272 -31.514 39.7929 0.04703 -34.3373 43.495 0.0561223 -37.9183 48.1917 0.0637581 -9.72583 9.72583 -4.74944e-12 -12.1365 12.1365 -4.84806e-12 -14.459 14.459 -5.00856e-12 -16.7286 16.7286 -5.06916e-12 -18.9799 18.9799 -5.2948e-12 -21.249 21.249 -5.28052e-12 -23.5754 23.5754 -5.32688e-12 -26.0038 26.0038 -5.18114e-12 -27.4233 27.4233 -7.4066e-12 -29.0406 29.0406 -9.44937e-12 -30.915 30.915 -1.06783e-11 -33.128 33.128 -1.18547e-11 -35.7952 35.7952 -1.33085e-11 -39.0872 39.0872 -1.43648e-11 -43.268 43.268 -1.47053e-11 -11.3086 8.15034 -0.0188021 -13.8227 10.4312 -0.00751547 -16.2665 12.6104 0.0017902 -18.6767 14.7209 0.0094837 -21.0899 16.7945 0.0158509 -23.5446 18.8643 0.021117 -26.0836 20.9656 0.0254613 -28.7561 23.1379 0.0290289 -30.3615 24.3421 0.00867215 -32.1867 25.7223 -0.00873599 -34.2993 27.3273 -0.0236035 -36.7914 29.2254 -0.036272 -39.7929 31.514 -0.04703 -43.495 34.3373 -0.0561223 -48.1917 37.9183 -0.0637581 -12.9043 6.58781 -0.0384563 -15.5012 8.70294 -0.0153669 -18.049 10.7091 0.00366051 -20.585 12.6352 0.0193975 -23.1472 14.5098 0.0324382 -25.7763 16.3614 0.043247 -28.5174 18.2205 0.0521924 -31.4235 20.1206 0.0595704 -33.1818 21.0811 0.0178183 -35.1803 22.1973 -0.0179742 -37.4927 23.5063 -0.048637 -40.2184 25.061 -0.0748633 -43.4969 26.9379 -0.0972362 -47.5317 29.251 -0.11625 -52.6338 32.1757 -0.132324 -14.5313 5.05658 -0.0599484 -17.1925 6.95598 -0.0239374 -19.828 8.74738 0.00570126 -22.4755 10.4543 0.0302222 -25.1739 12.0998 0.0505786 -27.9653 13.7071 0.0675077 -30.897 15.3004 0.0815884 -34.0246 16.9065 0.0932816 -35.8942 17.5937 0.0279567 -38.0216 18.4203 -0.0282633 -40.4837 19.4104 -0.076663 -43.3834 20.6002 -0.118309 -46.8638 22.0444 -0.154095 -51.1319 23.8247 -0.184773 -56.4999 26.0676 -0.210982 -16.2253 3.59229 -0.0845784 -18.9298 5.2048 -0.0337198 -21.6335 6.72297 0.00802616 -24.3744 8.16178 0.0425522 -27.192 9.53671 0.0712685 -30.1291 10.8637 0.0952474 -33.2344 12.1597 0.115318 -36.5655 13.4427 0.132134 -38.4903 13.8256 0.0397014 -40.686 14.3388 -0.0402519 -43.2296 14.9924 -0.109527 -46.2228 15.806 -0.169605 -49.8061 16.8122 -0.221719 -54.1796 18.0621 -0.266899 -59.6412 19.6358 -0.306017 -18.0495 2.2582 -0.114265 -20.7662 3.47954 -0.0454159 -23.5089 4.64082 0.0107925 -26.3154 5.74315 0.0571899 -29.225 6.79064 0.0958259 -32.2808 7.7893 0.128221 -35.5322 8.74645 0.155529 -39.037 9.67054 0.178637 -40.9375 9.71764 0.0538292 -43.1163 9.89828 -0.0547568 -45.6461 10.2079 -0.149546 -48.623 10.65 -0.232511 -52.1774 11.2372 -0.305275 -56.4928 11.9938 -0.369183 -61.8366 12.9609 -0.425361 -20.1169 1.16735 -0.152141 -22.7902 1.83729 -0.0601222 -25.5209 2.51849 0.0142367 -28.3449 3.18733 0.0753047 -31.3004 3.82962 0.126122 -34.4293 4.43673 0.168868 -37.7798 5.00332 0.20515 -41.4088 5.52597 0.236173 -43.1705 5.20946 0.0713762 -45.2108 5.04896 -0.0728593 -47.5939 5.02546 -0.199774 -50.4042 5.12784 -0.311964 -53.7551 5.35233 -0.411536 -57.8033 5.70307 -0.500215 -62.7732 6.19376 -0.579429 -22.6418 0.534083 -0.2039 -25.1587 0.386676 -0.0797178 -27.7797 0.396743 0.0187452 -30.534 0.49042 0.0987294 -33.4541 0.620196 0.164991 -36.5778 0.753689 0.220781 -39.9492 0.867308 0.268402 -43.6215 0.942403 0.309524 -45.078 0.245039 0.0937855 -46.8067 -0.24378 -0.096049 -48.8578 -0.557378 -0.264381 -51.2977 -0.718992 -0.414668 -54.2154 -0.743528 -0.549664 -57.7327 -0.638324 -0.671589 -62.0201 -0.402953 -0.782255 -5.48311 -82.4285 1.5895 -5.00393 -90.4002 1.21763 -4.68852 -98.3028 1.03099 -4.62909 -106.149 0.972934 -4.88698 -113.955 1.01331 -5.50693 -121.742 1.1373 -6.52511 -129.539 1.33971 -7.97394 -137.38 1.62182 -7.22181 -150.694 2.15842 -6.07208 -164.142 2.43677 -4.71807 -177.813 2.46028 -3.30915 -191.821 2.2352 -1.96388 -206.312 1.76891 -0.77978 -221.471 1.06838 0.158917 -237.539 0.138822 1.17172 -76.5245 0.308248 3.17168 -84.5965 0.206233 4.84596 -92.5343 0.199594 6.16202 -100.353 0.261481 7.09719 -108.068 0.378688 7.63421 -115.702 0.546479 7.75845 -123.28 0.76573 7.45596 -130.835 1.04131 10.3755 -145.76 1.43154 13.3085 -160.589 1.62841 16.132 -175.427 1.64034 18.7522 -190.399 1.4793 21.0958 -205.661 1.15941 23.1045 -221.406 0.695904 24.7291 -237.886 0.104276 8.0748 -70.8688 -0.346073 11.2469 -78.8679 -0.321355 14.0233 -86.6908 -0.245898 16.3967 -94.3487 -0.133597 18.3626 -101.856 0.00984412 19.9184 -109.23 0.184038 21.0621 -116.495 0.39225 21.7919 -123.68 0.640427 26.8265 -139.476 0.918723 31.6025 -155.002 1.05431 36.0509 -170.364 1.0581 40.1235 -185.692 0.944569 43.7881 -201.142 0.730635 47.0254 -216.912 0.434962 49.8259 -233.254 0.077502 15.0225 -65.2577 -0.613511 19.1322 -73.0826 -0.537904 22.8225 -80.6951 -0.435152 26.0965 -88.1032 -0.312918 28.9583 -95.3184 -0.173493 31.4132 -102.356 -0.0155747 33.4666 -109.238 0.164657 35.1248 -115.989 0.372904 42.1679 -132.078 0.566117 48.7649 -147.76 0.656549 54.8886 -163.14 0.655473 60.5285 -178.344 0.577295 65.689 -193.526 0.43874 70.3883 -208.88 0.25836 74.6586 -224.659 0.0563449 21.9015 -59.5779 -0.634554 26.7802 -67.16 -0.550836 31.2408 -74.4945 -0.452878 35.2901 -81.5875 -0.345044 38.9361 -88.4488 -0.228101 42.1879 -95.0921 -0.100369 45.0558 -101.536 0.0415684 47.5511 -107.806 0.202437 56.4614 -123.729 0.330788 64.8026 -139.139 0.3884 72.5801 -154.135 0.38519 79.8147 -168.837 0.333564 86.5428 -183.393 0.24783 92.8181 -197.99 0.143886 98.7144 -212.872 0.0391736 28.6459 -53.7635 -0.499362 34.1672 -61.0482 -0.432282 39.2856 -68.0503 -0.358155 44.0091 -74.7751 -0.279395 48.3469 -81.2315 -0.196159 52.31 -87.4325 -0.107057 55.9114 -93.3953 -0.00959187 59.1662 -99.1427 0.0995709 69.7795 -114.531 0.177473 79.7505 -129.326 0.211136 89.1104 -143.62 0.20786 97.9059 -157.522 0.176657 106.201 -171.173 0.127873 114.083 -184.747 0.0730061 121.665 -198.475 0.0247195 35.2175 -47.7763 -0.271367 41.2834 -54.7124 -0.23472 46.9705 -61.3315 -0.195207 52.286 -67.6393 -0.153912 57.2395 -73.6444 -0.110823 61.8427 -79.3593 -0.065175 66.1103 -84.8004 -0.0156597 70.0598 -89.9889 0.0394392 82.1937 -104.539 0.0761345 93.652 -118.441 0.091567 104.486 -131.776 0.0895911 114.765 -144.644 0.0749309 124.575 -157.171 0.0529952 134.034 -169.517 0.0297926 143.291 -181.891 0.0119549 41.5964 -41.5964 -2.54374e-12 48.1292 -48.1292 -3.02772e-12 54.3125 -54.3125 -3.37418e-12 60.1526 -60.1526 -3.61378e-12 65.6586 -65.6586 -3.86891e-12 70.8428 -70.8428 -3.91776e-12 75.7206 -75.7206 -3.99325e-12 80.3116 -80.3116 -4.02522e-12 93.7655 -93.7655 -5.1088e-12 106.543 -106.543 -5.71987e-12 118.713 -118.713 -6.13198e-12 130.361 -130.361 -6.30251e-12 141.594 -141.594 -6.23857e-12 152.554 -152.554 -5.85132e-12 163.424 -163.424 -5.4392e-12 47.7763 -35.2175 0.271367 54.7124 -41.2834 0.23472 61.3315 -46.9705 0.195207 67.6393 -52.286 0.153912 73.6444 -57.2395 0.110823 79.3593 -61.8427 0.065175 84.8004 -66.1103 0.0156597 89.9889 -70.0598 -0.0394392 104.539 -82.1937 -0.0761345 118.441 -93.652 -0.091567 131.776 -104.486 -0.0895911 144.644 -114.765 -0.0749309 157.171 -124.575 -0.0529952 169.517 -134.034 -0.0297926 181.891 -143.291 -0.0119549 53.7635 -28.6459 0.499362 61.0482 -34.1672 0.432282 68.0503 -39.2856 0.358155 74.7751 -44.0091 0.279395 81.2315 -48.3469 0.196159 87.4325 -52.31 0.107057 93.3953 -55.9114 0.00959187 99.1427 -59.1662 -0.0995709 114.531 -69.7795 -0.177473 129.326 -79.7505 -0.211136 143.62 -89.1104 -0.20786 157.522 -97.9059 -0.176657 171.173 -106.201 -0.127873 184.747 -114.083 -0.0730061 198.475 -121.665 -0.0247195 59.5779 -21.9015 0.634554 67.16 -26.7802 0.550836 74.4945 -31.2408 0.452878 81.5875 -35.2901 0.345044 88.4488 -38.9361 0.228101 95.0921 -42.1879 0.100369 101.536 -45.0558 -0.0415684 107.806 -47.5511 -0.202437 123.729 -56.4614 -0.330788 139.139 -64.8026 -0.3884 154.135 -72.5801 -0.38519 168.837 -79.8147 -0.333564 183.393 -86.5428 -0.24783 197.99 -92.8181 -0.143886 212.872 -98.7144 -0.0391736 65.2577 -15.0225 0.613511 73.0826 -19.1322 0.537904 80.6951 -22.8225 0.435152 88.1032 -26.0965 0.312918 95.3184 -28.9583 0.173493 102.356 -31.4132 0.0155747 109.238 -33.4666 -0.164657 115.989 -35.1248 -0.372904 132.078 -42.1679 -0.566117 147.76 -48.7649 -0.656549 163.14 -54.8886 -0.655473 178.344 -60.5285 -0.577295 193.526 -65.689 -0.43874 208.88 -70.3883 -0.25836 224.659 -74.6586 -0.0563449 70.8688 -8.0748 0.346073 78.8679 -11.2469 0.321355 86.6908 -14.0233 0.245898 94.3487 -16.3967 0.133597 101.856 -18.3626 -0.00984412 109.23 -19.9184 -0.184038 116.495 -21.0621 -0.39225 123.68 -21.7919 -0.640427 139.476 -26.8265 -0.918723 155.002 -31.6025 -1.05431 170.364 -36.0509 -1.0581 185.692 -40.1235 -0.944569 201.142 -43.7881 -0.730635 216.912 -47.0254 -0.434962 233.254 -49.8259 -0.077502 76.5245 -1.17172 -0.308248 84.5965 -3.17168 -0.206233 92.5343 -4.84596 -0.199594 100.353 -6.16202 -0.261481 108.068 -7.09719 -0.378688 115.702 -7.63421 -0.546479 123.28 -7.75845 -0.76573 130.835 -7.45596 -1.04131 145.76 -10.3755 -1.43154 160.589 -13.3085 -1.62841 175.427 -16.132 -1.64034 190.399 -18.7522 -1.4793 205.661 -21.0958 -1.15941 221.406 -23.1045 -0.695904 237.886 -24.7291 -0.104276 82.4285 5.48311 -1.5895 90.4002 5.00393 -1.21763 98.3028 4.68852 -1.03099 106.149 4.62909 -0.972934 113.955 4.88698 -1.01331 121.742 5.50693 -1.1373 129.539 6.52511 -1.33971 137.38 7.97394 -1.62182 150.694 7.22181 -2.15842 164.142 6.07208 -2.43677 177.813 4.71807 -2.46028 191.821 3.30915 -2.2352 206.312 1.96388 -1.76891 221.471 0.77978 -1.06838 237.539 -0.158917 -0.138822 -8.71187 -164.628 8.31007 -6.35915 -186.976 2.48963 -3.4698 -209.288 -0.685153 -0.840694 -231.617 -2.40506 1.00352 -254.049 -3.29453 1.67139 -276.712 -3.69046 0.838159 -299.782 -3.76721 -1.79283 -323.491 -3.59825 -2.86207 -341.8 1.70393 -2.71765 -361.325 4.9777 -2.25488 -382.5 6.35684 -2.2137 -405.882 5.95678 -3.25452 -432.205 3.86713 -6.02729 -462.459 0.141193 -11.2478 -498.009 -5.21943 5.1736 -153.75 6.48678 9.19653 -175.875 1.80129 13.658 -197.698 -0.818711 17.9373 -219.256 -2.23679 21.6007 -240.595 -2.93739 24.3183 -261.789 -3.19714 25.8218 -282.945 -3.16779 25.879 -304.214 -2.91994 29.8205 -327.26 1.36394 34.2039 -350.625 3.93734 38.3489 -374.725 4.94013 41.6995 -400.07 4.51652 43.7737 -427.307 2.80842 44.1187 -457.278 -0.0509764 42.2605 -491.117 -3.94421 18.6652 -142.479 5.01919 24.5938 -164.168 1.29086 30.8216 -185.396 -0.834059 36.8634 -206.159 -1.98294 42.3611 -226.46 -2.52787 47.0358 -246.319 -2.69185 50.663 -265.787 -2.60349 53.0569 -284.95 -2.3275 61.9011 -311.488 1.06418 70.5068 -337.573 3.04966 78.3637 -363.553 3.7638 85.0677 -389.851 3.35789 90.2884 -416.995 1.9931 93.7411 -445.661 -0.164632 95.1567 -476.747 -2.94845 31.8643 -130.915 3.79013 39.8187 -151.919 0.906456 47.923 -172.387 -0.761162 55.7894 -192.266 -1.66199 63.1172 -211.513 -2.07481 69.6671 -230.1 -2.17352 75.2471 -248.031 -2.06261 79.7036 -265.339 -1.79797 93.2236 -294.184 0.801503 105.917 -321.946 2.28826 117.402 -348.879 2.78248 127.392 -375.302 2.42519 135.677 -401.616 1.37192 142.105 -428.343 -0.212051 146.563 -456.168 -2.15468 44.8332 -119.122 2.72232 54.8489 -139.182 0.610904 64.8692 -158.693 -0.623367 74.574 -177.556 -1.28969 83.704 -195.683 -1.58684 92.0492 -213.006 -1.64275 99.4412 -229.487 -1.53682 105.749 -245.117 -1.31346 123.597 -275.148 0.570899 140.128 -303.615 1.62772 155.057 -330.672 1.95447 168.187 -356.534 1.66845 179.395 -381.49 0.901132 188.628 -405.924 -0.206059 195.891 -430.35 -1.50452 57.6111 -107.137 1.76114 69.6566 -126.001 0.375972 81.5719 -144.35 -0.439821 93.0832 -162.042 -0.880069 103.962 -178.95 -1.07258 114.019 -194.974 -1.1015 123.106 -210.041 -1.02029 131.107 -224.112 -0.859777 152.812 -254.27 0.365783 172.821 -282.539 1.04293 190.921 -308.978 1.24021 206.981 -333.709 1.04125 220.948 -356.926 0.54056 232.838 -378.905 -0.159809 242.741 -400.026 -0.952479 70.2219 -94.9847 0.865101 84.2106 -112.419 0.178884 97.947 -129.405 -0.227041 111.192 -145.764 -0.44606 123.74 -161.338 -0.540703 135.423 -175.998 -0.552715 146.104 -189.648 -0.50898 155.686 -202.221 -0.425288 180.66 -231.522 0.178361 203.68 -258.762 0.508782 224.593 -283.921 0.60132 243.326 -307.042 0.499421 259.88 -328.243 0.252347 274.33 -347.715 -0.0866434 286.826 -365.744 -0.461568 82.6784 -82.6784 9.27303e-12 98.4768 -98.4768 5.60646e-12 113.916 -113.916 3.07421e-12 128.785 -128.785 9.85434e-13 142.904 -142.904 -5.15143e-13 156.12 -156.12 -1.53833e-12 168.316 -168.316 -2.56861e-12 179.408 -179.408 -3.41771e-12 206.949 -206.949 -3.38218e-12 232.411 -232.411 -3.51719e-12 255.702 -255.702 -3.38218e-12 276.806 -276.806 -3.04823e-12 295.774 -295.774 -2.67164e-12 312.738 -312.738 -2.224e-12 327.91 -327.91 -1.53281e-12 94.9847 -70.2219 -0.865101 112.419 -84.2106 -0.178884 129.405 -97.947 0.227041 145.764 -111.192 0.44606 161.338 -123.74 0.540703 175.998 -135.423 0.552715 189.648 -146.104 0.50898 202.221 -155.686 0.425288 231.522 -180.66 -0.178361 258.762 -203.68 -0.508782 283.921 -224.593 -0.60132 307.042 -243.326 -0.499421 328.243 -259.88 -0.252347 347.715 -274.33 0.0866434 365.744 -286.826 0.461568 107.137 -57.6111 -1.76114 126.001 -69.6566 -0.375972 144.35 -81.5719 0.439821 162.042 -93.0832 0.880069 178.95 -103.962 1.07258 194.974 -114.019 1.1015 210.041 -123.106 1.02029 224.112 -131.107 0.859777 254.27 -152.812 -0.365783 282.539 -172.821 -1.04293 308.978 -190.921 -1.24021 333.709 -206.981 -1.04125 356.926 -220.948 -0.54056 378.905 -232.838 0.159809 400.026 -242.741 0.952479 119.122 -44.8332 -2.72232 139.182 -54.8489 -0.610904 158.693 -64.8692 0.623367 177.556 -74.574 1.28969 195.683 -83.704 1.58684 213.006 -92.0492 1.64275 229.487 -99.4412 1.53682 245.117 -105.749 1.31346 275.148 -123.597 -0.570899 303.615 -140.128 -1.62772 330.672 -155.057 -1.95447 356.534 -168.187 -1.66845 381.49 -179.395 -0.901132 405.924 -188.628 0.206059 430.35 -195.891 1.50452 130.915 -31.8643 -3.79013 151.919 -39.8187 -0.906456 172.387 -47.923 0.761162 192.266 -55.7894 1.66199 211.513 -63.1172 2.07481 230.1 -69.6671 2.17352 248.031 -75.2471 2.06261 265.339 -79.7036 1.79797 294.184 -93.2236 -0.801503 321.946 -105.917 -2.28826 348.879 -117.402 -2.78248 375.302 -127.392 -2.42519 401.616 -135.677 -1.37192 428.343 -142.105 0.212051 456.168 -146.563 2.15468 142.479 -18.6652 -5.01919 164.168 -24.5938 -1.29086 185.396 -30.8216 0.834059 206.159 -36.8634 1.98294 226.46 -42.3611 2.52787 246.319 -47.0358 2.69185 265.787 -50.663 2.60349 284.95 -53.0569 2.3275 311.488 -61.9011 -1.06418 337.573 -70.5068 -3.04966 363.553 -78.3637 -3.7638 389.851 -85.0677 -3.35789 416.995 -90.2884 -1.9931 445.661 -93.7411 0.164632 476.747 -95.1567 2.94845 153.75 -5.1736 -6.48678 175.875 -9.19653 -1.80129 197.698 -13.658 0.818711 219.256 -17.9373 2.23679 240.595 -21.6007 2.93739 261.789 -24.3183 3.19714 282.945 -25.8218 3.16779 304.214 -25.879 2.91994 327.26 -29.8205 -1.36394 350.625 -34.2039 -3.93734 374.725 -38.3489 -4.94013 400.07 -41.6995 -4.51652 427.307 -43.7737 -2.80842 457.278 -44.1187 0.0509764 491.117 -42.2605 3.94421 164.628 8.71187 -8.31007 186.976 6.35915 -2.48963 209.288 3.4698 0.685153 231.617 0.840694 2.40506 254.049 -1.00352 3.29453 276.712 -1.67139 3.69046 299.782 -0.838159 3.76721 323.491 1.79283 3.59825 341.8 2.86207 -1.70393 361.325 2.71765 -4.9777 382.5 2.25488 -6.35684 405.882 2.2137 -5.95678 432.205 3.25452 -3.86713 462.459 6.02729 -0.141193 498.009 11.2478 5.21943 9.63369 -195.242 11.0721 0.941405 -218.579 3.43712 -1.84418 -242.354 -0.31228 -1.79511 -266.687 -2.0988 -0.659513 -291.706 -2.89835 0.433179 -317.55 -3.22723 0.664418 -344.369 -3.35123 -0.624911 -372.328 -3.38475 -1.55176 -391.565 2.818 -1.84756 -412.033 6.69575 -2.30194 -433.896 8.40977 -3.58692 -457.349 8.09949 -6.31171 -482.613 5.89001 -11.0637 -509.954 1.89775 -18.4421 -539.685 -3.76513 18.9572 -178.05 8.75279 16.2978 -202.707 2.5547 17.5834 -226.899 -0.649175 20.7913 -250.933 -2.25447 24.6979 -275.038 -3.01135 28.484 -299.414 -3.33354 31.5482 -324.259 -3.44145 33.4098 -349.794 -3.43429 36.8262 -371.959 1.57938 40.4057 -395.072 4.68107 43.5437 -419.505 6.03825 45.7219 -445.706 5.81004 46.4635 -474.233 4.14821 45.2919 -505.805 1.19708 41.6875 -541.374 -2.90745 29.3341 -161.911 6.84394 31.7824 -187.039 1.88171 36.7718 -211.215 -0.787341 42.9568 -234.78 -2.17709 49.4846 -257.98 -2.85773 55.7707 -281.027 -3.15467 61.3866 -304.136 -3.24647 65.9991 -327.545 -3.21679 73.4612 -351.584 0.759757 80.7538 -376.258 3.19658 87.4691 -402.072 4.25231 93.2794 -429.661 4.08555 97.9063 -459.853 2.8527 101.093 -493.773 0.705393 102.572 -533.015 -2.2122 40.4865 -146.548 5.21203 47.3321 -171.488 1.35709 55.6859 -195.255 -0.780159 64.6505 -218.148 -1.92571 73.6378 -240.384 -2.5025 82.241 -262.16 -2.75862 90.1694 -283.678 -2.8336 97.2107 -305.176 -2.79509 108.384 -330.194 0.260449 119.159 -355.532 2.11764 129.324 -381.77 2.91505 138.761 -409.66 2.79558 147.436 -440.218 1.90299 155.397 -474.887 0.378932 162.796 -515.811 -1.63958 52.2416 -131.788 3.76817 62.9055 -155.996 0.936941 74.3 -178.988 -0.668126 85.8327 -200.984 -1.54679 97.1074 -222.152 -1.998 107.853 -242.649 -2.20087 117.89 -262.654 -2.25814 127.103 -282.382 -2.22096 141.624 -307.608 0.000131149 155.601 -332.864 1.34126 169.012 -358.751 1.9128 181.95 -386.072 1.83079 194.645 -415.947 1.21348 207.511 -450.014 0.178806 221.237 -490.803 -1.15721 64.4906 -117.522 2.44908 78.4757 -140.524 0.587957 92.5954 -162.393 -0.483395 106.473 -183.256 -1.07837 119.855 -203.215 -1.38796 132.577 -222.38 -1.52833 144.546 -240.892 -1.56704 155.732 -258.937 -1.5384 173.209 -283.697 -0.0903301 190.072 -308.239 0.779824 206.47 -333.14 1.14859 222.698 -359.195 1.09737 239.249 -387.541 0.709811 256.916 -419.876 0.0700035 276.985 -458.896 -0.738168 77.1671 -103.683 1.20638 94.0268 -125.048 0.283323 110.559 -145.46 -0.252796 126.547 -164.944 -0.553028 141.851 -183.531 -0.710441 156.391 -201.276 -0.782153 170.146 -218.273 -0.801674 183.156 -234.667 -0.786224 203.169 -258.365 -0.0717982 222.569 -281.65 0.35624 241.653 -305.039 0.537016 260.897 -329.264 0.512417 281.034 -355.394 0.325668 303.208 -385.059 0.0204402 329.283 -420.881 -0.359327 90.2349 -90.2349 4.25044e-12 109.551 -109.551 2.53421e-12 128.182 -128.182 1.13293e-12 146.041 -146.041 -9.4591e-14 163.079 -163.079 -1.0143e-12 179.288 -179.288 -1.74349e-12 194.71 -194.71 -2.14762e-12 209.441 -209.441 -2.4869e-12 231.541 -231.541 -2.50466e-12 253.094 -253.094 -2.51532e-12 274.524 -274.524 -2.29505e-12 296.453 -296.453 -2.0357e-12 319.813 -319.813 -1.69287e-12 346.039 -346.039 -1.28964e-12 377.46 -377.46 -7.77838e-13 103.683 -77.1671 -1.20638 125.048 -94.0268 -0.283323 145.46 -110.559 0.252796 164.944 -126.547 0.553028 183.531 -141.851 0.710441 201.276 -156.391 0.782153 218.273 -170.146 0.801674 234.667 -183.156 0.786224 258.365 -203.169 0.0717982 281.65 -222.569 -0.35624 305.039 -241.653 -0.537016 329.264 -260.897 -0.512417 355.394 -281.034 -0.325668 385.059 -303.208 -0.0204402 420.881 -329.283 0.359327 117.522 -64.4906 -2.44908 140.524 -78.4757 -0.587957 162.393 -92.5954 0.483395 183.256 -106.473 1.07837 203.215 -119.855 1.38796 222.38 -132.577 1.52833 240.892 -144.546 1.56704 258.937 -155.732 1.5384 283.697 -173.209 0.0903301 308.239 -190.072 -0.779824 333.14 -206.47 -1.14859 359.195 -222.698 -1.09737 387.541 -239.249 -0.709811 419.876 -256.916 -0.0700035 458.896 -276.985 0.738168 131.788 -52.2416 -3.76817 155.996 -62.9055 -0.936941 178.988 -74.3 0.668126 200.984 -85.8327 1.54679 222.152 -97.1074 1.998 242.649 -107.853 2.20087 262.654 -117.89 2.25814 282.382 -127.103 2.22096 307.608 -141.624 -0.000131149 332.864 -155.601 -1.34126 358.751 -169.012 -1.9128 386.072 -181.95 -1.83079 415.947 -194.645 -1.21348 450.014 -207.511 -0.178806 490.803 -221.237 1.15721 146.548 -40.4865 -5.21203 171.488 -47.3321 -1.35709 195.255 -55.6859 0.780159 218.148 -64.6505 1.92571 240.384 -73.6378 2.5025 262.16 -82.241 2.75862 283.678 -90.1694 2.8336 305.176 -97.2107 2.79509 330.194 -108.384 -0.260449 355.532 -119.159 -2.11764 381.77 -129.324 -2.91505 409.66 -138.761 -2.79558 440.218 -147.436 -1.90299 474.887 -155.397 -0.378932 515.811 -162.796 1.63958 161.911 -29.3341 -6.84394 187.039 -31.7824 -1.88171 211.215 -36.7718 0.787341 234.78 -42.9568 2.17709 257.98 -49.4846 2.85773 281.027 -55.7707 3.15467 304.136 -61.3866 3.24647 327.545 -65.9991 3.21679 351.584 -73.4612 -0.759757 376.258 -80.7538 -3.19658 402.072 -87.4691 -4.25231 429.661 -93.2794 -4.08555 459.853 -97.9063 -2.8527 493.773 -101.093 -0.705393 533.015 -102.572 2.2122 178.05 -18.9572 -8.75279 202.707 -16.2978 -2.5547 226.899 -17.5834 0.649175 250.933 -20.7913 2.25447 275.038 -24.6979 3.01135 299.414 -28.484 3.33354 324.259 -31.5482 3.44145 349.794 -33.4098 3.43429 371.959 -36.8262 -1.57938 395.072 -40.4057 -4.68107 419.505 -43.5437 -6.03825 445.706 -45.7219 -5.81004 474.233 -46.4635 -4.14821 505.805 -45.2919 -1.19708 541.374 -41.6875 2.90745 195.242 -9.63369 -11.0721 218.579 -0.941405 -3.43712 242.354 1.84418 0.31228 266.687 1.79511 2.0988 291.706 0.659513 2.89835 317.55 -0.433179 3.22723 344.369 -0.664418 3.35123 372.328 0.624911 3.38475 391.565 1.55176 -2.818 412.033 1.84756 -6.69575 433.896 2.30194 -8.40977 457.349 3.58692 -8.09949 482.613 6.31171 -5.89001 509.954 11.0637 -1.89775 539.685 18.4421 3.76513 11.4365 -208.846 13.6173 2.03204 -235.959 4.05274 -0.814344 -263.376 -0.544259 -0.63273 -291.184 -2.66821 0.60559 -319.474 -3.55366 1.64189 -348.341 -3.83919 1.57367 -377.885 -3.84423 -0.314917 -408.213 -3.69782 -1.01349 -430.064 3.43937 -1.10056 -452.766 7.7885 -1.5124 -476.415 9.58693 -3.02848 -501.121 9.05908 -6.33282 -527.006 6.42582 -12.0565 -554.204 1.91179 -20.8092 -582.867 -4.24838 21.1149 -190.323 10.7831 18.5058 -218.864 3.0237 20.2449 -246.737 -0.903845 23.9999 -274.243 -2.81427 28.3819 -301.588 -3.65985 32.469 -328.938 -3.95458 35.59 -356.455 -3.96504 37.2146 -384.311 -3.80484 41.3101 -409.484 1.97536 45.4413 -435.149 5.45849 48.8803 -461.617 6.88109 51.0158 -489.245 6.47903 51.3018 -518.465 4.48943 49.2152 -549.81 1.15208 44.2147 -583.956 -3.28879 31.9679 -172.974 8.4419 35.1167 -201.989 2.23422 41.0359 -229.82 -1.0371 48.1659 -256.809 -2.69256 55.5294 -283.183 -3.45799 62.46 -309.128 -3.73913 68.4712 -334.825 -3.75307 73.1865 -360.475 -3.59669 81.7898 -387.795 0.994242 89.9988 -415.238 3.73278 97.302 -443.257 4.83782 103.288 -472.393 4.5348 107.606 -503.332 3.0536 109.934 -536.97 0.627311 109.942 -574.521 -2.50758 43.69 -156.495 6.43479 51.8006 -185.244 1.61553 61.5244 -212.584 -1.00357 71.8122 -238.811 -2.36926 81.9803 -264.122 -3.02111 91.5559 -288.689 -3.26935 100.199 -312.685 -3.28432 107.66 -336.314 -3.14499 120.431 -364.77 0.386089 132.492 -393 2.474 143.545 -421.531 3.30733 153.393 -451.028 3.08431 161.922 -482.358 2.00912 169.087 -516.704 0.289759 174.91 -555.749 -1.86166 56.0904 -140.694 4.65522 68.5148 -168.568 1.11769 81.6845 -195.001 -0.849011 94.8963 -220.2 -1.89722 107.679 -244.31 -2.40899 119.707 -267.463 -2.60879 130.758 -289.809 -2.62241 140.685 -311.536 -2.50994 157.238 -340.25 0.0585153 172.861 -368.426 1.56646 187.459 -396.619 2.16284 201.048 -425.547 2.00628 213.77 -456.181 1.2613 225.907 -489.888 0.0963045 237.938 -528.682 -1.31569 69.0485 -125.451 3.02693 85.2318 -151.921 0.702443 101.497 -177.052 -0.610179 117.384 -200.948 -1.32032 132.58 -223.684 -1.67232 146.874 -245.342 -1.81201 160.137 -266.033 -1.82227 172.307 -285.919 -1.7436 192.215 -314.117 -0.068367 211.062 -341.525 0.910034 228.93 -368.674 1.29434 246.044 -396.28 1.19489 262.793 -425.334 0.726596 279.804 -457.266 0.00755562 298.059 -494.239 -0.84005 82.4903 -110.692 1.49139 101.935 -135.276 0.338806 120.948 -158.729 -0.318016 139.25 -181.04 -0.676468 156.65 -202.207 -0.855706 173.029 -222.253 -0.92749 188.334 -241.244 -0.932988 202.576 -259.299 -0.892565 225.373 -286.294 -0.0658817 247.057 -312.315 0.415392 267.87 -337.831 0.603632 288.216 -363.498 0.555348 308.712 -390.251 0.329542 330.303 -419.46 -0.0130185 354.459 -453.237 -0.409153 96.3756 -96.3756 5.67487e-13 118.616 -118.616 -3.25573e-14 140.027 -140.027 -5.59108e-13 160.472 -160.472 -8.9484e-13 179.863 -179.863 -1.22657e-12 198.155 -198.155 -1.50813e-12 215.36 -215.36 -1.65912e-12 231.549 -231.549 -1.70886e-12 256.725 -256.725 -1.78346e-12 280.817 -280.817 -1.84031e-12 304.198 -304.198 -1.6982e-12 327.418 -327.418 -1.59162e-12 351.282 -351.282 -1.33582e-12 376.991 -376.991 -9.5568e-13 406.413 -406.413 -6.01144e-13 110.692 -82.4903 -1.49139 135.276 -101.935 -0.338806 158.729 -120.948 0.318016 181.04 -139.25 0.676468 202.207 -156.65 0.855706 222.253 -173.029 0.92749 241.244 -188.334 0.932988 259.299 -202.576 0.892565 286.294 -225.373 0.0658817 312.315 -247.057 -0.415392 337.831 -267.87 -0.603632 363.498 -288.216 -0.555348 390.251 -308.712 -0.329542 419.46 -330.303 0.0130185 453.237 -354.459 0.409153 125.451 -69.0485 -3.02693 151.921 -85.2318 -0.702443 177.052 -101.497 0.610179 200.948 -117.384 1.32032 223.684 -132.58 1.67232 245.342 -146.874 1.81201 266.033 -160.137 1.82227 285.919 -172.307 1.7436 314.117 -192.215 0.068367 341.525 -211.062 -0.910034 368.674 -228.93 -1.29434 396.28 -246.044 -1.19489 425.334 -262.793 -0.726596 457.266 -279.804 -0.00755562 494.239 -298.059 0.84005 140.694 -56.0904 -4.65522 168.568 -68.5148 -1.11769 195.001 -81.6845 0.849011 220.2 -94.8963 1.89722 244.31 -107.679 2.40899 267.463 -119.707 2.60879 289.809 -130.758 2.62241 311.536 -140.685 2.50994 340.25 -157.238 -0.0585153 368.426 -172.861 -1.56646 396.619 -187.459 -2.16284 425.547 -201.048 -2.00628 456.181 -213.77 -1.2613 489.888 -225.907 -0.0963045 528.682 -237.938 1.31569 156.495 -43.69 -6.43479 185.244 -51.8006 -1.61553 212.584 -61.5244 1.00357 238.811 -71.8122 2.36926 264.122 -81.9803 3.02111 288.689 -91.5559 3.26935 312.685 -100.199 3.28432 336.314 -107.66 3.14499 364.77 -120.431 -0.386089 393 -132.492 -2.474 421.531 -143.545 -3.30733 451.028 -153.393 -3.08431 482.358 -161.922 -2.00912 516.704 -169.087 -0.289759 555.749 -174.91 1.86166 172.974 -31.9679 -8.4419 201.989 -35.1167 -2.23422 229.82 -41.0359 1.0371 256.809 -48.1659 2.69256 283.183 -55.5294 3.45799 309.128 -62.46 3.73913 334.825 -68.4712 3.75307 360.475 -73.1865 3.59669 387.795 -81.7898 -0.994242 415.238 -89.9988 -3.73278 443.257 -97.302 -4.83782 472.393 -103.288 -4.5348 503.332 -107.606 -3.0536 536.97 -109.934 -0.627311 574.521 -109.942 2.50758 190.323 -21.1149 -10.7831 218.864 -18.5058 -3.0237 246.737 -20.2449 0.903845 274.243 -23.9999 2.81427 301.588 -28.3819 3.65985 328.938 -32.469 3.95458 356.455 -35.59 3.96504 384.311 -37.2146 3.80484 409.484 -41.3101 -1.97536 435.149 -45.4413 -5.45849 461.617 -48.8803 -6.88109 489.245 -51.0158 -6.47903 518.465 -51.3018 -4.48943 549.81 -49.2152 -1.15208 583.956 -44.2147 3.28879 208.846 -11.4365 -13.6173 235.959 -2.03204 -4.05274 263.376 0.814344 0.544259 291.184 0.63273 2.66821 319.474 -0.60559 3.55366 348.341 -1.64189 3.83919 377.885 -1.57367 3.84423 408.213 0.314917 3.69782 430.064 1.01349 -3.43937 452.766 1.10056 -7.7885 476.415 1.5124 -9.58693 501.121 3.02848 -9.05908 527.006 6.33282 -6.42582 554.204 12.0565 -1.91179 582.867 20.8092 4.24838 11.6398 -220.85 16.101 1.49959 -251.287 4.59334 -1.39717 -281.885 -0.808916 -1.05798 -312.692 -3.22205 0.324824 -343.755 -4.15106 1.37081 -375.125 -4.35874 1.10325 -406.854 -4.21769 -1.2394 -438.992 -3.87106 -1.63505 -462.791 4.13425 -1.42471 -487.033 8.90021 -1.6739 -511.763 10.7468 -3.24998 -537.027 9.98791