<?xml version="1.0"?> 
<VTKFile type="StructuredGrid" version="0.1"> 
<StructuredGrid WholeExtent="0 14 0 14 0 29"> 
<Piece Extent="0 14 0 14 0 29"> 
<PointData>
<DataArray type="Float32" Name="hfield" format="ascii" NumberOfComponents="3"> 
93.0395 8.6402e-12 -8.36735e-11 87.8952 8.14705 -7.80744e-11 82.5199 16.0631 -7.2248e-11 76.9136 23.7482 -6.645e-11 71.0764 31.2023 -6.11635e-11 65.0082 38.4254 -5.50244e-11 58.7089 45.4176 -4.95675e-11 52.1788 52.1788 -4.38831e-11 45.4176 58.7089 -4.40536e-11 38.4254 65.0082 -4.43379e-11 31.2023 71.0764 -4.44516e-11 23.7482 76.9136 -4.502e-11 16.0631 82.5199 -4.45652e-11 8.14705 87.8952 -4.47926e-11 2.78533e-11 93.0395 -4.54747e-11 87.8952 -8.14705 -7.65431e-11 82.3219 -4.63457e-12 -7.14639e-11 76.5507 7.94907 -6.64985e-11 70.5814 15.7002 -6.13341e-11 64.4142 23.2533 -5.6454e-11 58.049 30.6084 -5.13464e-11 51.4858 37.7655 -4.63525e-11 44.7247 44.7247 -4.13587e-11 37.7655 51.4858 -4.13619e-11 30.6084 58.049 -4.10241e-11 23.2533 64.4142 -4.09705e-11 15.7002 70.5814 -4.11443e-11 7.94907 76.5507 -4.05223e-11 2.33342e-11 82.3219 -4.10371e-11 -8.14705 87.8952 -4.08698e-11 82.5199 -16.0631 -6.91853e-11 76.5507 -7.94907 -6.51377e-11 70.4164 -1.09104e-11 -6.04932e-11 64.1172 7.78408 -5.59341e-11 57.653 15.4032 -5.18012e-11 51.0239 22.8573 -4.7441e-11 44.2297 30.1464 -4.3365e-11 37.2705 37.2705 -3.88343e-11 30.1464 44.2297 -3.84429e-11 22.8573 51.0239 -3.81083e-11 15.4032 57.653 -3.78306e-11 7.78408 64.1172 -3.7496e-11 2.11173e-11 70.4164 -3.69341e-11 -7.94907 76.5507 -3.68269e-11 -16.0631 82.5199 -3.60375e-11 76.9136 -23.7482 -6.20548e-11 70.5814 -15.7002 -5.84561e-11 64.1172 -7.78408 -5.47722e-11 57.521 -1.18803e-11 -5.10456e-11 50.7929 7.65209 -4.72053e-11 43.9327 15.1722 -4.35925e-11 36.9406 22.5603 -3.99227e-11 29.8164 29.8164 -3.61962e-11 22.5603 36.9406 -3.55806e-11 15.1722 43.9327 -3.48514e-11 7.65209 50.7929 -3.42358e-11 1.8531e-11 57.521 -3.36203e-11 -7.78408 64.1172 -3.27774e-11 -15.7002 70.5814 -3.19345e-11 -23.7482 76.9136 -3.14326e-11 71.0764 -31.2023 -5.45833e-11 64.4142 -23.2533 -5.18456e-11 57.653 -15.4032 -4.86532e-11 50.7929 -7.65209 -4.57877e-11 43.8337 -9.83391e-12 -4.26663e-11 36.7756 7.5531 -3.96871e-11 29.6185 15.0072 -3.65373e-11 22.3623 22.3623 -3.36717e-11 15.0072 29.6185 -3.27468e-11 7.5531 36.7756 -3.17082e-11 1.63425e-11 43.8337 -3.08685e-11 -7.65209 50.7929 -2.98583e-11 -15.4032 57.653 -2.87344e-11 -23.2533 64.4142 -2.79516e-11 -31.2023 71.0764 -2.70551e-11 65.0082 -38.4254 -4.74529e-11 58.049 -30.6084 -4.51712e-11 51.0239 -22.8573 -4.27048e-11 43.9327 -15.1722 -4.03024e-11 36.7756 -7.5531 -3.80704e-11 29.5525 -5.3717e-12 -3.56964e-11 22.2633 7.48711 -3.34361e-11 14.9082 14.9082 -3.10336e-11 7.48711 22.2633 -2.97424e-11 1.52056e-11 29.5525 -2.86502e-11 -7.5531 36.7756 -2.73875e-11 -15.1722 43.9327 -2.60963e-11 -22.8573 51.0239 -2.46915e-11 -30.6084 58.049 -2.3514e-11 -38.4254 65.0082 -2.22228e-11 58.7089 -45.4176 -4.00382e-11 51.4858 -37.7655 -3.85358e-11 44.2297 -30.1464 -3.65503e-11 36.9406 -22.5603 -3.5016e-11 29.6185 -15.0072 -3.34888e-11 22.2633 -7.48711 -3.17768e-11 14.8752 -1.98952e-12 -3.01359e-11 7.45411 7.45411 -2.84808e-11 1.54046e-11 14.8752 -2.69584e-11 -7.48711 22.2633 -2.54786e-11 -15.0072 29.6185 -2.39349e-11 -22.5603 36.9406 -2.25048e-11 -30.1464 44.2297 -2.07906e-11 -37.7655 51.4858 -1.94174e-11 -45.4176 58.7089 -1.7959e-11 52.1788 -52.1788 -3.26235e-11 44.7247 -44.7247 -3.16941e-11 37.2705 -37.2705 -3.08783e-11 29.8164 -29.8164 -2.98352e-11 22.3623 -22.3623 -2.89058e-11 14.9082 -14.9082 -2.79195e-11 7.45411 -7.45411 -2.69048e-11 1.68825e-11 -5.11591e-13 -2.59089e-11 -7.45411 7.45411 -2.40748e-11 -14.9082 14.9082 -2.23354e-11 -22.3623 22.3623 -2.04823e-11 -29.8164 29.8164 -1.85723e-11 -37.2705 37.2705 -1.69466e-11 -44.7247 44.7247 -1.50935e-11 -52.1788 52.1788 -1.32404e-11 45.4176 -58.7089 -1.79625e-11 37.7655 -51.4858 -1.87583e-11 30.1464 -44.2297 -1.9611e-11 22.5603 -36.9406 -2.05063e-11 15.0072 -29.6185 -2.11884e-11 7.48711 -22.2633 -2.2041e-11 2.03997e-11 -14.8752 -2.28226e-11 -7.45411 -7.45411 -2.36469e-11 -14.8752 -6.90648e-12 -2.1025e-11 -22.2633 7.48711 -1.83036e-11 -29.6185 15.0072 -1.57172e-11 -36.9406 22.5603 -1.29319e-11 -44.2297 30.1464 -1.0175e-11 -51.4858 37.7655 -7.78755e-12 -58.7089 45.4176 -4.94538e-12 38.4254 -65.0082 -3.18323e-12 30.6084 -58.049 -6.11067e-12 22.8573 -51.0239 -8.46967e-12 15.1722 -43.9327 -1.09708e-11 7.5531 -36.7756 -1.3614e-11 2.04636e-11 -29.5525 -1.62004e-11 -7.48711 -22.2633 -1.87583e-11 -14.9082 -14.9082 -2.13731e-11 -22.2633 -7.48711 -1.78773e-11 -29.5525 -1.27898e-11 -1.4353e-11 -36.7756 7.5531 -1.07434e-11 -43.9327 15.1722 -7.27596e-12 -51.0239 22.8573 -3.80851e-12 -58.049 30.6084 -3.41061e-13 -65.0082 38.4254 3.18323e-12 31.2023 -71.0764 1.15961e-11 23.2533 -64.4142 7.03437e-12 15.4032 -57.653 2.87059e-12 7.65209 -50.7929 -1.7053e-12 1.56462e-11 -43.8337 -6.0254e-12 -7.5531 -36.7756 -1.03455e-11 -15.0072 -29.6185 -1.47793e-11 -22.3623 -22.3623 -1.91562e-11 -29.6185 -15.0072 -1.47224e-11 -36.7756 -7.5531 -1.03455e-11 -43.8337 -1.68541e-11 -6.13909e-12 -50.7929 7.65209 -1.59162e-12 -57.653 15.4032 2.6148e-12 -64.4142 23.2533 7.27596e-12 -71.0764 31.2023 1.15961e-11 23.7482 -76.9136 2.66027e-11 15.7002 -70.5814 2.00231e-11 7.78408 -64.1172 1.41824e-11 2.65743e-12 -57.521 7.95808e-12 -7.65209 -50.7929 1.53477e-12 -15.1722 -43.9327 -4.49063e-12 -22.5603 -36.9406 -1.06866e-11 -29.8164 -29.8164 -1.69393e-11 -36.9406 -22.5603 -1.17382e-11 -43.9327 -15.1722 -6.36646e-12 -50.7929 -7.65209 -1.02318e-12 -57.521 -1.85878e-11 4.09273e-12 -64.1172 7.78408 9.32232e-12 -70.5814 15.7002 1.43245e-11 -76.9136 23.7482 1.97815e-11 16.0631 -82.5199 4.09273e-11 7.94907 -76.5507 3.30402e-11 -1.7593e-11 -70.4164 2.49258e-11 -7.78408 -64.1172 1.73372e-11 -15.4032 -57.653 9.15179e-12 -22.8573 -51.0239 1.25056e-12 -30.1464 -44.2297 -6.70752e-12 -37.2705 -37.2705 -1.46656e-11 -44.2297 -30.1464 -8.58336e-12 -51.0239 -22.8573 -2.55795e-12 -57.653 -15.4032 3.86535e-12 -64.1172 -7.78408 9.66338e-12 -70.4164 -1.54614e-11 1.59162e-11 -76.5507 7.94907 2.20552e-11 -82.5199 16.0631 2.84217e-11 8.14705 -87.8952 5.54792e-11 -5.0143e-11 -82.3219 4.61e-11 -7.94907 -76.5507 3.63798e-11 -15.7002 -70.5814 2.64322e-11 -23.2533 -64.4142 1.6712e-11 -30.6084 -58.049 6.9349e-12 -37.7655 -51.4858 -2.6148e-12 -44.7247 -44.7247 -1.23919e-11 -51.4858 -37.7655 -5.51381e-12 -58.049 -30.6084 1.47793e-12 -64.4142 -23.2533 8.29914e-12 -70.5814 -15.7002 1.54614e-11 -76.5507 -7.94907 2.20552e-11 -82.3219 -8.75389e-12 2.93312e-11 -87.8952 8.14705 3.63798e-11 -9.25411e-11 -93.0395 7.04858e-11 -8.14705 -87.8952 5.88898e-11 -16.0631 -82.5199 4.74643e-11 -23.7482 -76.9136 3.58114e-11 -31.2023 -71.0764 2.44427e-11 -38.4254 -65.0082 1.28466e-11 -45.4176 -58.7089 1.47793e-12 -52.1788 -52.1788 -1.02318e-11 -58.7089 -45.4176 -2.33058e-12 -65.0082 -38.4254 5.57066e-12 -71.0764 -31.2023 1.3415e-11 -76.9136 -23.7482 2.11458e-11 -82.5199 -16.0631 2.91038e-11 -87.8952 -8.14705 3.63798e-11 -93.0395 5.34328e-12 4.45652e-11 -156.021 1.29603e-11 -5.83213e-11 -144.601 -10.8693 -5.62892e-11 -133.224 -21.7808 -5.36318e-11 -121.89 -32.7347 -5.16422e-11 -110.597 -43.731 -4.93969e-11 -99.3469 -54.7695 -4.73506e-11 -88.1391 -65.8504 -4.50768e-11 -76.9736 -76.9736 -4.28031e-11 -65.8504 -88.1391 -4.23483e-11 -54.7695 -99.3469 -4.17799e-11 -43.731 -110.597 -4.12683e-11 -32.7347 -121.89 -4.08136e-11 -21.7808 -133.224 -4.02451e-11 -10.8693 -144.601 -3.96767e-11 1.59162e-11 -156.021 -3.93356e-11 -144.601 10.8693 -5.85426e-11 -133.261 8.33644e-12 -5.58169e-11 -121.956 -10.9055 -5.30201e-11 -110.688 -21.8473 -5.03086e-11 -99.4557 -32.8254 -4.78956e-11 -88.26 -43.8398 -4.4914e-11 -77.1005 -54.8904 -4.2302e-11 -65.9773 -65.9773 -3.94058e-11 -54.8904 -77.1005 -3.88229e-11 -43.8398 -88.26 -3.82969e-11 -32.8254 -99.4557 -3.77283e-11 -21.8473 -110.688 -3.74154e-11 -10.9055 -121.956 -3.68752e-11 1.89999e-11 -133.261 -3.63919e-11 10.8693 -144.601 -3.60222e-11 -133.224 21.7808 -5.95597e-11 -121.956 10.9055 -5.60481e-11 -110.718 2.65032e-12 -5.27638e-11 -99.5101 -10.9358 -4.92308e-11 -88.3325 -21.9018 -4.60531e-11 -77.1852 -32.898 -4.27049e-11 -66.068 -43.9244 -3.94703e-11 -54.9811 -54.9811 -3.59516e-11 -43.9244 -66.068 -3.53401e-11 -32.898 -77.1852 -3.48708e-11 -21.9018 -88.3325 -3.41882e-11 -10.9358 -99.5101 -3.38468e-11 2.14584e-11 -110.718 -3.32211e-11 10.9055 -121.956 -3.26523e-11 21.7808 -133.224 -3.19129e-11 -121.89 32.7347 -5.98947e-11 -110.688 21.8473 -5.59169e-11 -99.5101 10.9358 -5.19674e-11 -88.3567 -3.38218e-12 -4.80535e-11 -77.2275 -10.9599 -4.42107e-11 -66.1224 -21.9441 -4.03252e-11 -55.0416 -32.9524 -3.62976e-11 -43.9849 -43.9849 -3.24974e-11 -32.9524 -55.0416 -3.18999e-11 -21.9441 -66.1224 -3.15014e-11 -10.9599 -77.2275 -3.10745e-11 2.31637e-11 -88.3567 -3.03918e-11 10.9358 -99.5101 -2.98512e-11 21.8473 -110.688 -2.94811e-11 32.7347 -121.89 -2.87131e-11 -110.597 43.731 -6.05139e-11 -99.4557 32.8254 -5.58461e-11 -88.3325 21.9018 -5.12492e-11 -77.2275 10.9599 -4.69615e-11 -66.1406 -8.41283e-12 -4.24677e-11 -55.0718 -10.9781 -3.80024e-11 -44.0212 -21.9743 -3.35512e-11 -32.9887 -32.9887 -2.90432e-11 -21.9743 -44.0212 -2.84811e-11 -10.9781 -55.0718 -2.79332e-11 2.33626e-11 -66.1406 -2.74492e-11 10.9599 -77.2275 -2.68516e-11 21.9018 -88.3325 -2.64813e-11 32.8254 -99.4557 -2.60257e-11 43.731 -110.597 -2.52291e-11 -99.3469 54.7695 -6.07352e-11 -88.26 43.8398 -5.5761e-11 -77.1852 32.898 -5.06447e-11 -66.1224 21.9441 -4.56208e-11 -55.0718 10.9781 -4.06821e-11 -44.0333 -1.2875e-11 -3.56227e-11 -33.0068 -10.9902 -3.05774e-11 -21.9924 -21.9924 -2.55606e-11 -10.9902 -33.0068 -2.50409e-11 2.27658e-11 -44.0333 -2.45354e-11 10.9781 -55.0718 -2.39944e-11 21.9441 -66.1224 -2.34818e-11 32.898 -77.1852 -2.28272e-11 43.8398 -88.26 -2.2343e-11 54.7695 -99.3469 -2.19725e-11 -88.1391 65.8504 -6.12692e-11 -77.1005 54.8904 -5.56725e-11 -66.068 43.9244 -4.99905e-11 -55.0416 32.9524 -4.46176e-11 -44.0212 21.9743 -3.8861e-11 -33.0068 10.9902 -3.33069e-11 -21.9985 -1.58025e-11 -2.7696e-11 -10.9962 -10.9962 -2.21064e-11 2.18421e-11 -21.9985 -2.15688e-11 10.9902 -33.0068 -2.10027e-11 21.9743 -44.0212 -2.05183e-11 32.9524 -55.0416 -1.9899e-11 43.9244 -66.068 -1.94999e-11 54.8904 -77.1005 -1.89303e-11 65.8504 -88.1391 -1.84317e-11 -76.9736 76.9736 -6.19319e-11 -65.9773 65.9773 -5.56584e-11 -54.9811 54.9811 -4.94987e-11 -43.9849 43.9849 -4.33389e-11 -32.9887 32.9887 -3.71792e-11 -21.9924 21.9924 -3.09626e-11 -10.9962 10.9962 -2.48028e-11 2.02363e-11 -1.71099e-11 -1.86332e-11 10.9962 -10.9962 -1.81218e-11 21.9924 -21.9924 -1.75569e-11 32.9887 -32.9887 -1.70771e-11 43.9849 -43.9849 -1.65406e-11 54.9811 -54.9811 -1.59472e-11 65.9773 -65.9773 -1.55243e-11 76.9736 -76.9736 -1.50446e-11 -65.8504 88.1391 -5.32339e-11 -54.8904 77.1005 -4.76401e-11 -43.9244 66.068 -4.2057e-11 -32.9524 55.0416 -3.6529e-11 -21.9743 44.0212 -3.1001e-11 -10.9902 33.0068 -2.54303e-11 2.12026e-11 21.9985 -1.98384e-11 10.9962 10.9962 -1.42961e-11 21.9985 -1.54898e-11 -1.37135e-11 33.0068 -10.9902 -1.30811e-11 44.0212 -21.9743 -1.25056e-11 55.0416 -32.9524 -1.18945e-11 66.068 -43.9244 -1.11982e-11 77.1005 -54.8904 -1.06866e-11 88.1391 -65.8504 -1.00329e-11 -54.7695 99.3469 -4.43947e-11 -43.8398 88.26 -3.94742e-11 -32.898 77.1852 -3.45608e-11 -21.9441 66.1224 -2.96438e-11 -10.9781 55.0718 -2.47979e-11 2.44711e-11 44.0333 -1.97673e-11 10.9902 33.0068 -1.48503e-11 21.9924 21.9924 -9.9476e-12 33.0068 10.9902 -9.32943e-12 44.0333 -1.40687e-11 -8.62599e-12 55.0718 -10.9781 -7.92966e-12 66.1224 -21.9441 -7.3328e-12 77.1852 -32.898 -6.45173e-12 88.26 -43.8398 -5.91172e-12 99.3469 -54.7695 -5.34328e-12 -43.731 110.597 -3.57545e-11 -32.8254 99.4557 -3.15268e-11 -21.9018 88.3325 -2.73062e-11 -10.9599 77.2275 -2.278e-11 2.98144e-11 66.1406 -1.8531e-11 10.9781 55.0718 -1.42393e-11 21.9743 44.0212 -9.91918e-12 32.9887 32.9887 -5.6275e-12 44.0212 21.9743 -4.89564e-12 55.0718 10.9781 -4.1922e-12 66.1406 -1.25624e-11 -3.38218e-12 77.2275 -10.9599 -2.72848e-12 88.3325 -21.9018 -1.93268e-12 99.4557 -32.8254 -9.66338e-13 110.597 -43.731 -3.97904e-13 -32.7347 121.89 -2.70575e-11 -21.8473 110.688 -2.33769e-11 -10.9358 99.5101 -1.96536e-11 3.81419e-11 88.3567 -1.60583e-11 10.9599 77.2275 -1.24771e-11 21.9441 66.1224 -8.6402e-12 32.9524 55.0416 -5.03064e-12 43.9849 43.9849 -1.25056e-12 55.0416 32.9524 -5.40012e-13 66.1224 21.9441 4.26326e-13 77.2275 10.9599 1.27898e-12 88.3567 -1.18803e-11 1.98952e-12 99.5101 -10.9358 2.89901e-12 110.688 -21.8473 3.58114e-12 121.89 -32.7347 4.3201e-12 -21.7808 133.224 -1.83036e-11 -10.9055 121.956 -1.52269e-11 4.93401e-11 110.718 -1.24487e-11 10.9358 99.5101 -9.0381e-12 21.9018 88.3325 -6.16751e-12 32.898 77.1852 -3.06954e-12 43.9244 66.068 5.68434e-14 54.9811 54.9811 3.06954e-12 66.068 43.9244 3.83693e-12 77.1852 32.898 4.74643e-12 88.3325 21.9018 5.79803e-12 99.5101 10.9358 6.53699e-12 110.718 -1.21645e-11 7.27596e-12 121.956 -10.9055 8.41283e-12 133.224 -21.7808 8.98126e-12 -10.8693 144.601 -9.89075e-12 6.40057e-11 133.261 -7.11964e-12 10.9055 121.956 -4.93117e-12 21.8473 110.688 -2.18847e-12 32.8254 99.4557 2.84217e-13 43.8398 88.26 2.44427e-12 54.8904 77.1005 5.00222e-12 65.9773 65.9773 7.38964e-12 77.1005 54.8904 8.28493e-12 88.26 43.8398 9.23706e-12 99.4557 32.8254 1.0175e-11 110.688 21.8473 1.11982e-11 121.956 10.9055 1.19371e-11 133.261 -1.23919e-11 1.3074e-11 144.601 -10.8693 1.39835e-11 8.32188e-11 156.021 -9.09495e-13 10.8693 144.601 1.08002e-12 21.7808 133.224 2.21689e-12 32.7347 121.89 4.63274e-12 43.731 110.597 6.30962e-12 54.7695 99.3469 8.01492e-12 65.8504 88.1391 1.00044e-11 76.9736 76.9736 1.17666e-11 88.1391 65.8504 1.27045e-11 99.3469 54.7695 1.37561e-11 110.597 43.731 1.47793e-11 121.89 32.7347 1.59162e-11 133.224 21.7808 1.6712e-11 144.601 10.8693 1.77351e-11 156.021 -1.50067e-11 1.90994e-11 -381.943 5.00222e-12 -1.81899e-11 -356.57 -29.1904 -2.30216e-11 -330.904 -58.0871 -2.75691e-11 -304.943 -86.6902 -3.17186e-11 -278.689 -115 -3.58114e-11 -252.142 -143.015 -4.04725e-11 -225.301 -170.737 -4.502e-11 -198.166 -198.166 -4.93401e-11 -170.737 -225.301 -4.50768e-11 -143.015 -252.142 -4.13252e-11 -115 -278.689 -3.72893e-11 -86.6902 -304.943 -3.27418e-11 -58.0871 -330.904 -2.88765e-11 -29.1904 -356.57 -2.50111e-11 2.13731e-11 -381.943 -2.09184e-11 -356.57 29.1904 -2.02448e-11 -330.652 -4.46524e-12 -2.37482e-11 -304.482 -28.9387 -2.68537e-11 -278.06 -57.6256 -3.09113e-11 -251.387 -86.0609 -3.42016e-11 -224.462 -114.244 -3.77761e-11 -197.285 -142.176 -4.12369e-11 -169.857 -169.857 -4.46976e-11 -142.176 -197.285 -4.07713e-11 -114.244 -224.462 -3.68449e-11 -86.0609 -251.387 -3.30322e-11 -57.6256 -278.06 -2.92195e-11 -28.9387 -304.482 -2.51794e-11 2.17142e-11 -330.652 -2.14804e-11 29.1904 -356.57 -1.77814e-11 -330.904 58.0871 -2.22996e-11 -304.482 28.9387 -2.52422e-11 -277.85 -9.76286e-12 -2.73605e-11 -251.009 -28.7289 -2.96493e-11 -223.958 -57.2481 -3.23645e-11 -196.698 -85.5575 -3.50228e-11 -169.227 -113.657 -3.74537e-11 -141.547 -141.547 -3.99415e-11 -113.657 -169.227 -3.63236e-11 -85.5575 -196.698 -3.26488e-11 -57.2481 -223.958 -2.90025e-11 -28.7289 -251.009 -2.51288e-11 2.31921e-11 -277.85 -2.12551e-11 28.9387 -304.482 -1.79498e-11 58.0871 -330.904 -1.39624e-11 -304.943 86.6902 -2.38998e-11 -278.06 57.6256 -2.5713e-11 -251.009 28.7289 -2.72988e-11 -223.791 -1.16813e-11 -2.89841e-11 -196.404 -28.5611 -3.05273e-11 -168.85 -56.9544 -3.22695e-11 -141.128 -85.18 -3.36137e-11 -113.238 -113.238 -3.52991e-11 -85.18 -141.128 -3.19043e-11 -56.9544 -168.85 -2.83959e-11 -28.5611 -196.404 -2.46886e-11 2.3249e-11 -223.791 -2.12654e-11 28.7289 -251.009 -1.78991e-11 57.6256 -278.06 -1.43054e-11 86.6902 -304.943 -1.07118e-11 -278.689 115 -2.60683e-11 -251.387 86.0609 -2.6468e-11 -223.958 57.2481 -2.70524e-11 -196.404 28.5611 -2.7921e-11 -168.724 -1.15392e-11 -2.86618e-11 -140.918 -28.4353 -2.93457e-11 -112.986 -56.7447 -3.01717e-11 -84.9283 -84.9283 -3.07703e-11 -56.7447 -112.986 -2.74282e-11 -28.4353 -140.918 -2.40009e-11 2.52385e-11 -168.724 -2.07725e-11 28.5611 -196.404 -1.74021e-11 57.2481 -223.958 -1.40884e-11 86.0609 -251.387 -1.07748e-11 115 -278.689 -7.12007e-12 -252.142 143.015 -2.78958e-11 -224.462 114.244 -2.73793e-11 -196.698 85.5575 -2.72608e-11 -168.85 56.9544 -2.69432e-11 -140.918 28.4353 -2.68531e-11 -112.902 -1.03455e-11 -2.66208e-11 -84.8024 -28.3514 -2.63317e-11 -56.6188 -56.6188 -2.6071e-11 -28.3514 -84.8024 -2.3009e-11 2.59206e-11 -112.902 -1.98048e-11 28.4353 -140.918 -1.66007e-11 56.9544 -168.85 -1.35955e-11 85.5575 -196.698 -1.03914e-11 114.244 -224.462 -7.07358e-12 143.015 -252.142 -3.92629e-12 -225.301 170.737 -2.94391e-11 -197.285 142.176 -2.83404e-11 -169.227 113.657 -2.71849e-11 -141.128 85.18 -2.6207e-11 -112.986 56.7447 -2.4817e-11 -84.8024 28.3514 -2.37965e-11 -56.5769 -8.75389e-12 -2.26338e-11 -28.3094 -28.3094 -2.1457e-11 2.73417e-11 -56.5769 -1.85116e-11 28.3514 -84.8024 -1.55662e-11 56.7447 -112.986 -1.24999e-11 85.18 -141.128 -9.5048e-12 113.657 -169.227 -6.60912e-12 142.176 -197.285 -3.65661e-12 170.737 -225.301 -7.60931e-13 -198.166 198.166 -3.13977e-11 -169.857 169.857 -2.92496e-11 -141.547 141.547 -2.71015e-11 -113.238 113.238 -2.50671e-11 -84.9283 84.9283 -2.31464e-11 -56.6188 56.6188 -2.09983e-11 -28.3094 28.3094 -1.89355e-11 2.91038e-11 -7.95808e-12 -1.68523e-11 28.3094 -28.3094 -1.40533e-11 56.6188 -56.6188 -1.1226e-11 84.9283 -84.9283 -8.45542e-12 113.238 -113.238 -5.68488e-12 141.547 -141.547 -2.91435e-12 169.857 -169.857 -3.01231e-14 198.166 -198.166 2.62673e-12 -170.737 225.301 -2.4329e-11 -142.176 197.285 -2.21796e-11 -113.657 169.227 -2.03144e-11 -85.18 141.128 -1.86304e-11 -56.7447 112.986 -1.68967e-11 -28.3514 84.8024 -1.50919e-11 3.09797e-11 56.5769 -1.33156e-11 28.3094 28.3094 -1.14824e-11 56.5769 -1.13403e-11 -1.00258e-11 84.8024 -28.3514 -8.45546e-12 112.986 -56.7447 -6.99174e-12 141.128 -85.18 -5.48539e-12 169.227 -113.657 -3.83693e-12 197.285 -142.176 -2.38742e-12 225.301 -170.737 -7.10543e-13 -143.015 252.142 -1.65983e-11 -114.244 224.462 -1.50564e-11 -85.5575 196.698 -1.35856e-11 -56.9544 168.85 -1.20224e-11 -28.4353 140.918 -1.0715e-11 3.40492e-11 112.902 -9.15179e-12 28.3514 84.8024 -7.61702e-12 56.6188 56.6188 -6.19593e-12 84.8024 28.3514 -5.98277e-12 112.902 -1.58025e-11 -5.76961e-12 140.918 -28.4353 -5.42855e-12 168.85 -56.9544 -5.34328e-12 196.698 -85.5575 -5.05906e-12 224.462 -114.244 -4.88853e-12 252.142 -143.015 -4.718e-12 -115 278.689 -8.86757e-12 -86.0609 251.387 -8.01492e-12 -57.2481 223.958 -6.87805e-12 -28.5611 196.404 -5.68434e-12 3.56408e-11 168.724 -4.46221e-12 28.4353 140.918 -3.24007e-12 56.7447 112.986 -1.93268e-12 84.9283 84.9283 -7.95808e-13 112.986 56.7447 -1.89004e-12 140.918 28.4353 -2.95586e-12 168.724 -1.8872e-11 -3.97904e-12 196.404 -28.5611 -5.11591e-12 223.958 -57.2481 -6.36646e-12 251.387 -86.0609 -7.27596e-12 278.689 -115 -8.6402e-12 -86.6902 304.943 -1.81899e-12 -57.6256 278.06 -9.23706e-13 -28.7289 251.009 3.12639e-13 3.74598e-11 223.791 8.52651e-13 28.5611 196.404 1.87583e-12 56.9544 168.85 2.67164e-12 85.18 141.128 3.58114e-12 113.238 113.238 4.54747e-12 141.128 85.18 2.13163e-12 168.85 56.9544 -1.13687e-13 196.404 28.5611 -2.50111e-12 223.791 -1.79625e-11 -4.88853e-12 251.009 -28.7289 -7.27596e-12 278.06 -57.6256 -9.66338e-12 304.943 -86.6902 -1.17097e-11 -58.0871 330.904 5.45697e-12 -28.9387 304.482 6.05382e-12 3.64366e-11 277.85 6.79279e-12 28.7289 251.009 7.56017e-12 57.2481 223.958 8.12861e-12 85.5575 196.698 8.58336e-12 113.657 169.227 9.43601e-12 141.547 141.547 1.00044e-11 169.227 113.657 6.13909e-12 196.698 85.5575 2.55795e-12 223.958 57.2481 -9.09495e-13 251.009 28.7289 -4.88853e-12 277.85 -1.31877e-11 -8.41283e-12 304.482 -28.9387 -1.20508e-11 330.904 -58.0871 -1.56888e-11 -29.1904 356.57 1.29603e-11 3.23723e-11 330.652 1.35003e-11 28.9387 304.482 1.34719e-11 57.6256 278.06 1.3813e-11 86.0609 251.387 1.43245e-11 114.244 224.462 1.46656e-11 142.176 197.285 1.4893e-11 169.857 169.857 1.5234e-11 197.285 142.176 1.00897e-11 224.462 114.244 5.28644e-12 251.387 86.0609 3.41061e-13 278.06 57.6256 -4.77485e-12 304.482 28.9387 -9.54969e-12 330.652 -1.13687e-12 -1.47793e-11 356.57 -29.1904 -1.95541e-11 2.68301e-11 381.943 2.02363e-11 29.1904 356.57 2.02931e-11 58.0871 330.904 2.02931e-11 86.6902 304.943 2.04636e-11 115 278.689 2.03499e-11 143.015 252.142 2.04636e-11 170.737 225.301 2.05773e-11 198.166 198.166 2.0691e-11 225.301 170.737 1.41824e-11 252.142 143.015 8.07177e-12 278.689 115 2.16005e-12 304.943 86.6902 -4.54747e-12 330.904 58.0871 -1.06866e-11 356.57 29.1904 -1.68257e-11 381.943 1.81899e-11 -2.29647e-11 -477.663 3.81988e-11 -9.68825e-12 -445.96 -36.5345 -1.16303e-11 -413.885 -72.6974 -1.31473e-11 -381.439 -108.489 -1.46372e-11 -348.621 -143.908 -1.64944e-11 -315.431 -178.956 -1.82663e-11 -281.87 -213.632 -1.98135e-11 -247.937 -247.937 -2.16431e-11 -213.632 -281.87 -2.08149e-11 -178.956 -315.431 -1.99023e-11 -143.908 -348.621 -1.89182e-11 -108.489 -381.439 -1.84439e-11 -72.6974 -413.885 -1.73159e-11 -36.5345 -445.96 -1.64171e-11 3.86535e-12 -477.663 -1.53477e-11 -445.96 36.5345 -8.8185e-12 -413.567 3.1358e-11 -1.0324e-11 -380.855 -36.216 -1.16203e-11 -347.824 -72.1133 -1.31648e-11 -314.475 -107.692 -1.46796e-11 -280.808 -142.952 -1.6038e-11 -246.822 -177.894 -1.76266e-11 -212.517 -212.517 -1.9041e-11 -177.894 -246.822 -1.81563e-11 -142.952 -280.808 -1.72113e-11 -107.692 -314.475 -1.61858e-11 -72.1133 -347.824 -1.55521e-11 -36.216 -380.855 -1.43268e-11 3.82272e-12 -413.567 -1.35012e-11 36.5345 -445.96 -1.27254e-11 -413.885 72.6974 -8.17967e-12 -380.855 36.216 -9.25591e-12 -347.559 2.251e-11 -1.0643e-11 -313.998 -35.9505 -1.1664e-11 -280.171 -71.6355 -1.29385e-11 -246.079 -107.055 -1.40381e-11 -211.721 -142.209 -1.53233e-11 -177.098 -177.098 -1.64388e-11 -142.209 -211.721 -1.55035e-11 -107.055 -246.079 -1.44945e-11 -71.6355 -280.171 -1.35068e-11 -35.9505 -313.998 -1.26656e-11 6.84963e-12 -347.559 -1.16201e-11 36.216 -380.855 -1.05747e-11 72.6974 -413.885 -9.70511e-12 -381.439 108.489 -7.47867e-12 -347.824 72.1133 -8.45899e-12 -313.998 35.9505 -9.31408e-12 -279.958 1.3074e-11 -1.01645e-11 -245.707 -35.7381 -1.10651e-11 -211.243 -71.2639 -1.20941e-11 -176.567 -106.577 -1.29658e-11 -141.678 -141.678 -1.38944e-11 -106.577 -176.567 -1.28502e-11 -71.2639 -211.243 -1.18634e-11 -35.7381 -245.707 -1.09467e-11 9.2939e-12 -279.958 -9.80397e-12 35.9505 -313.998 -8.88683e-12 72.1133 -347.824 -7.82759e-12 108.489 -381.439 -6.68485e-12 -348.621 143.908 -6.38331e-12 -314.475 107.692 -7.07098e-12 -280.171 71.6355 -7.86057e-12 -245.707 35.7381 -8.53047e-12 -211.084 3.04112e-12 -9.20903e-12 -176.301 -35.5788 -9.89292e-12 -141.36 -70.9984 -1.06368e-11 -106.259 -106.259 -1.12931e-11 -70.9984 -141.36 -1.02401e-11 -35.5788 -176.301 -9.15992e-12 1.27898e-11 -211.084 -8.17259e-12 35.7381 -245.707 -7.05603e-12 71.6355 -280.171 -6.03805e-12 107.692 -314.475 -5.0787e-12 143.908 -348.621 -4.03408e-12 -315.431 178.956 -5.74271e-12 -280.808 142.952 -6.24941e-12 -246.079 107.055 -6.56737e-12 -211.243 71.2639 -6.85247e-12 -176.301 35.5788 -7.45198e-12 -141.253 -6.59384e-12 -7.81479e-12 -106.099 -35.4726 -8.22113e-12 -70.8391 -70.8391 -8.67675e-12 -35.4726 -106.099 -7.61645e-12 1.74936e-11 -141.253 -6.49953e-12 35.5788 -176.301 -5.42423e-12 71.2639 -211.243 -4.33651e-12 107.055 -246.079 -3.16174e-12 142.952 -280.808 -2.01539e-12 178.956 -315.431 -1.06978e-12 -281.87 213.632 -4.90271e-12 -246.822 177.894 -5.02133e-12 -211.721 142.209 -5.14372e-12 -176.567 106.577 -5.33289e-12 -141.36 70.9984 -5.54505e-12 -106.099 35.4726 -5.73578e-12 -70.786 -1.52909e-11 -5.90519e-12 -35.4196 -35.4196 -6.08881e-12 2.28653e-11 -70.786 -4.96558e-12 35.4726 -106.099 -3.86e-12 70.9984 -141.36 -2.7416e-12 106.577 -176.567 -1.5597e-12 142.209 -211.721 -4.34197e-13 177.894 -246.822 6.77097e-13 213.632 -281.87 1.86611e-12 -247.937 247.937 -3.93632e-12 -212.517 212.517 -3.85276e-12 -177.098 177.098 -3.82248e-12 -141.678 141.678 -3.79221e-12 -106.259 106.259 -3.73528e-12 -70.8391 70.8391 -3.64772e-12 -35.4196 35.4196 -3.56193e-12 2.87628e-11 -2.23963e-11 -3.50262e-12 35.4196 -35.4196 -2.32521e-12 70.8391 -70.8391 -1.18046e-12 106.259 -106.259 3.5123e-14 141.678 -141.678 1.25071e-12 177.098 -177.098 2.3828e-12 212.517 -212.517 3.54243e-12 247.937 -247.937 4.72871e-12 -213.632 281.87 2.24487e-12 -177.894 246.822 1.9223e-12 -142.209 211.721 1.6972e-12 -106.577 176.567 1.26243e-12 -70.9984 141.36 1.07425e-12 -35.4726 106.099 7.76268e-13 3.4845e-11 70.786 5.21139e-13 35.4196 35.4196 2.30038e-13 70.786 -2.65317e-11 1.1055e-12 106.099 -35.4726 1.97731e-12 141.36 -70.9984 2.90257e-12 176.567 -106.577 3.86691e-12 211.721 -142.209 4.71756e-12 246.822 -177.894 5.65326e-12 281.87 -213.632 6.30473e-12 -178.956 315.431 8.59757e-12 -142.952 280.808 7.77334e-12 -107.055 246.079 7.06768e-12 -71.2639 211.243 6.44396e-12 -35.5788 176.301 5.81446e-12 3.95346e-11 141.253 5.27001e-12 35.4726 106.099 4.63274e-12 70.8391 70.8391 3.9595e-12 106.099 35.4726 4.58811e-12 141.253 -2.80522e-11 5.15388e-12 176.301 -35.5788 5.76206e-12 211.243 -71.2639 6.33404e-12 246.079 -107.055 6.87805e-12 280.808 -142.952 7.50777e-12 315.431 -178.956 7.99449e-12 -143.908 348.621 1.4623e-11 -107.692 314.475 1.3584e-11 -71.6355 280.171 1.25004e-11 -35.7381 245.707 1.15659e-11 4.35421e-11 211.084 1.06466e-11 35.5788 176.301 9.64828e-12 70.9984 141.36 8.75122e-12 106.259 106.259 7.69607e-12 141.36 70.9984 8.01847e-12 176.301 35.5788 8.22853e-12 211.084 -2.83649e-11 8.53628e-12 245.707 -35.7381 8.90132e-12 280.171 -71.6355 9.09584e-12 314.475 -107.692 9.57634e-12 348.621 -143.908 9.82681e-12 -108.489 381.439 2.09344e-11 -72.1133 347.824 1.94544e-11 -35.9505 313.998 1.81295e-11 4.70095e-11 279.958 1.68647e-11 35.7381 245.707 1.53726e-11 71.2639 211.243 1.41922e-11 106.577 176.567 1.27693e-11 141.678 141.678 1.14602e-11 176.567 106.577 1.14342e-11 211.243 71.2639 1.14073e-11 245.707 35.7381 1.1509e-11 279.958 -2.82512e-11 1.14975e-11 313.998 -35.9505 1.14255e-11 347.824 -72.1133 1.15268e-11 381.439 -108.489 1.14326e-11 -72.6974 413.885 2.69047e-11 -36.216 380.855 2.4978e-11 4.99369e-11 347.559 2.3507e-11 35.9505 313.998 2.17613e-11 71.6355 280.171 2.03269e-11 107.055 246.079 1.85789e-11 142.209 211.721 1.68452e-11 177.098 177.098 1.51399e-11 211.721 142.209 1.47637e-11 246.079 107.055 1.4615e-11 280.171 71.6355 1.42828e-11 313.998 35.9505 1.3948e-11 347.559 -2.92175e-11 1.36193e-11 380.855 -36.216 1.33973e-11 413.885 -72.6974 1.32907e-11 -36.5345 445.96 3.33849e-11 5.02922e-11 413.567 3.10902e-11 36.216 380.855 2.90403e-11 72.1133 347.824 2.67697e-11 107.692 314.475 2.5123e-11 142.952 280.808 2.28511e-11 177.894 246.822 2.0977e-11 212.517 212.517 1.88471e-11 246.822 177.894 1.82943e-11 280.808 142.952 1.76819e-11 314.475 107.692 1.71418e-11 347.824 72.1133 1.67439e-11 380.855 36.216 1.58931e-11 413.567 -3.13776e-11 1.54401e-11 445.96 -36.5345 1.48681e-11 5.16138e-11 477.663 3.9126e-11 36.5345 445.96 3.72413e-11 72.6974 413.885 3.4416e-11 108.489 381.439 3.2033e-11 143.908 348.621 2.96785e-11 178.956 315.431 2.73772e-11 213.632 281.87 2.49951e-11 247.937 247.937 2.26414e-11 281.87 213.632 2.18514e-11 315.431 178.956 2.09761e-11 348.621 143.908 1.98312e-11 381.439 108.489 1.93694e-11 413.885 72.6974 1.8165e-11 445.96 36.5345 1.76463e-11 477.663 -3.68345e-11 1.63887e-11 -560.778 3.9563e-11 4.00746e-12 -523.951 -43.2836 3.76321e-12 -486.626 -86.0706 3.47455e-12 -448.806 -128.361 2.97717e-12 -410.488 -170.155 2.74625e-12 -371.674 -211.452 2.23821e-12 -332.364 -252.252 2.01794e-12 -292.556 -292.556 1.5774e-12 -252.252 -332.364 4.51195e-13 -211.452 -371.674 -7.88702e-13 -170.155 -410.488 -2.224e-12 -128.361 -448.806 -3.1406e-12 -86.0706 -486.626 -4.64695e-12 -43.2836 -523.951 -6.01119e-12 4.54747e-12 -560.778 -7.16227e-12 -523.951 43.2836 6.5383e-12 -486.201 2.96971e-11 5.83769e-12 -448.025 -42.858 5.46925e-12 -409.424 -85.2902 5.00046e-12 -370.397 -127.297 4.40376e-12 -330.945 -168.878 4.08418e-12 -291.066 -210.033 3.47683e-12 -250.763 -250.763 3.02935e-12 -210.033 -291.066 1.94392e-12 -168.878 -330.945 9.473e-13 -127.297 -370.397 -3.12216e-13 -85.2902 -409.424 -1.5966e-12 -42.858 -448.025 -2.54703e-12 4.46221e-12 -486.201 -3.78168e-12 43.2836 -523.951 -4.99501e-12 -486.626 86.0706 8.38701e-12 -448.025 42.858 7.78249e-12 -409.069 1.97957e-11 7.45685e-12 -369.759 -42.5032 6.81058e-12 -330.093 -84.6517 6.07549e-12 -290.073 -126.445 5.6033e-12 -249.698 -167.885 4.9748e-12 -208.969 -208.969 4.50261e-12 -167.885 -249.698 3.49881e-12 -126.445 -290.073 2.59804e-12 -84.6517 -330.093 1.49299e-12 -42.5032 -369.759 5.08726e-13 6.90648e-12 -409.069 -5.60799e-13 42.858 -448.025 -1.51664e-12 86.0706 -486.626 -2.373e-12 -448.806 128.361 1.06905e-11 -409.424 85.2902 9.9742e-12 -369.759 42.5032 9.31299e-12 -329.81 9.80549e-12 8.7788e-12 -289.577 -42.2194 8.05986e-12 -249.06 -84.1551 7.32493e-12 -208.259 -125.807 6.7179e-12 -167.175 -167.175 6.0185e-12 -125.807 -208.259 5.04304e-12 -84.1551 -249.06 4.12265e-12 -42.2194 -289.577 3.22358e-12 9.37916e-12 -329.81 2.3547e-12 42.5032 -369.759 1.41833e-12 85.2902 -409.424 5.42347e-13 128.361 -448.806 -3.26529e-13 -410.488 170.155 1.30508e-11 -370.397 127.297 1.21184e-11 -330.093 84.6517 1.14622e-11 -289.577 42.2194 1.05907e-11 -248.847 3.41061e-13 9.77599e-12 -207.905 -42.0066 9.08741e-12 -166.749 -83.8004 8.22653e-12 -125.381 -125.381 7.44558e-12 -83.8004 -166.749 6.63524e-12 -42.0066 -207.905 5.86221e-12 1.27329e-11 -248.847 4.9897e-12 42.2194 -289.577 4.18292e-12 84.6517 -330.093 3.3939e-12 127.297 -370.397 2.44501e-12 170.155 -410.488 1.72705e-12 -371.674 211.452 1.52938e-11 -330.945 168.878 1.42719e-11 -290.073 126.445 1.34978e-11 -249.06 84.1551 1.26229e-11 -207.905 42.0066 1.16076e-11 -166.607 -8.86757e-12 1.07096e-11 -125.168 -41.8647 9.82042e-12 -83.5875 -83.5875 8.90818e-12 -41.8647 -125.168 8.19235e-12 1.74794e-11 -166.607 7.50495e-12 42.0066 -207.905 6.77181e-12 84.1551 -249.06 6.03956e-12 126.445 -290.073 5.38369e-12 168.878 -330.945 4.68874e-12 211.452 -371.674 3.8872e-12 -332.364 252.252 1.74552e-11 -291.066 210.033 1.65398e-11 -249.698 167.885 1.54969e-11 -208.259 125.807 1.44809e-11 -166.749 83.8004 1.34445e-11 