<?xml version="1.0"?> 
<VTKFile type="StructuredGrid" version="0.1"> 
<StructuredGrid WholeExtent="0 14 0 14 0 29"> 
<Piece Extent="0 14 0 14 0 29"> 
<PointData>
<DataArray type="Float32" Name="hfield" format="ascii" NumberOfComponents="3"> 
-22.8284 0.821532 -0.165744 -23.8778 -0.323721 -0.0769942 -24.9272 -0.980386 -0.00911054 -25.9766 -1.31847 0.0444917 -27.026 -1.44326 0.0878904 -28.0754 -1.42344 0.123746 -29.1248 -1.30572 0.153867 -30.1741 -1.12298 0.179528 -29.8169 -1.29682 0.226626 -29.4597 -1.32882 0.267648 -29.1025 -1.24164 0.303701 -28.7453 -1.0528 0.335634 -28.3881 -0.775995 0.364117 -28.0309 -0.422137 0.389679 -27.6737 1.04448e-14 0.412748 -20.9386 2.07558 -0.125579 -22.2947 1.68427 -0.0590343 -23.602 1.56438 -0.00703728 -24.8722 1.62079 0.0345129 -26.113 1.7912 0.0683097 -27.3298 2.03315 0.0961956 -28.5262 2.31676 0.119473 -29.7049 2.62046 0.13909 -29.5425 2.44711 0.17504 -29.369 2.36938 0.205947 -29.1865 2.37054 0.232673 -28.9966 2.43743 0.255895 -28.8005 2.55956 0.276155 -28.5993 2.72849 0.293887 -28.3939 2.93732 0.309445 -19.2663 3.54708 -0.095291 -20.7866 3.69631 -0.0451086 -22.2373 3.98683 -0.0053995 -23.6323 4.36299 0.0265352 -24.9811 4.78698 0.052545 -26.2904 5.23234 0.0739395 -27.5651 5.68005 0.0916721 -28.8088 6.11624 0.106453 -28.7761 5.9716 0.133539 -28.725 5.88749 0.156528 -28.6584 5.85189 0.176092 -28.5788 5.85529 0.192768 -28.488 5.89001 0.206988 -28.3875 5.94983 0.219106 -28.2787 6.02967 0.229411 -17.6984 5.12304 -0.0710356 -19.2959 5.67547 -0.0337632 -20.815 6.28713 -0.00405042 -22.2683 6.92499 0.0199214 -23.6649 7.56615 0.0394369 -25.0114 8.19436 0.0554289 -26.3128 8.79788 0.0685916 -27.5727 9.36815 0.0794517 -27.6198 9.26661 0.0993663 -27.6439 9.19907 0.116069 -27.6482 9.15732 0.130073 -27.6352 9.13479 0.141793 -27.6071 9.1262 0.151566 -27.5656 9.12726 0.159671 -27.512 9.13447 0.166337 -16.1729 6.74132 -0.050594 -17.7885 7.60181 -0.0241031 -19.3226 8.46812 -0.00289474 -20.7856 9.32117 0.0142396 -22.1854 10.1476 0.0281719 -23.5276 10.9381 0.0395471 -24.8167 11.6858 0.0488521 -26.0561 12.3858 0.0564619 -26.1452 12.3327 0.0704307 -26.209 12.2937 0.0820273 -26.2506 12.2636 0.0916257 -26.2721 12.2382 0.0995297 -26.2758 12.2141 0.105988 -26.2631 12.1888 0.111208 -26.2356 12.16 0.115361 -14.6538 8.36613 -0.0325583 -16.2427 9.46478 -0.0155306 -17.7509 10.534 -0.00186613 -19.1861 11.5639 0.00917865 -20.5543 12.5476 0.0181479 -21.8602 13.4803 0.025449 -23.1072 14.3588 0.0313928 -24.2982 15.181 0.0362207 -24.4011 15.1756 0.045092 -24.4785 15.1697 0.0523992 -24.533 15.1602 0.058387 -24.5664 15.1449 0.063255 -24.5805 15.1221 0.0671679 -24.5765 15.0903 0.0702624 -24.5558 15.0486 0.0726533 -13.1207 9.97689 -0.0159469 -14.6447 11.2596 -0.00761157 -16.0924 12.4898 -0.000914769 -17.4685 13.6637 0.00449864 -18.7769 14.7793 0.0088907 -20.0206 15.835 0.0124589 -21.202 16.8301 0.015355 -22.3234 17.7645 0.0176973 -22.4189 17.8021 0.0220043 -22.4911 17.8284 0.0255345 -22.5416 17.8423 0.0284089 -22.5717 17.8431 0.0307265 -22.5824 17.8303 0.0325694 -22.5749 17.8035 0.0340058 -22.55 17.7624 0.0350929 -11.5629 11.5629 8.02145e-13 -12.9855 12.9855 5.14603e-13 -14.3407 14.3407 2.84854e-13 -15.6296 15.6296 1.00067e-13 -16.8532 16.8532 -3.9448e-14 -18.0128 18.0128 -1.64113e-13 -19.1095 19.1095 -2.76591e-13 -20.1442 20.1442 -3.55474e-13 -20.2166 20.2166 -2.70514e-13 -20.2703 20.2703 -1.68816e-13 -20.3057 20.3057 -9.00487e-14 -20.3232 20.3232 -1.64568e-14 -20.3233 20.3233 5.29219e-14 -20.3063 20.3063 1.14085e-13 -20.2728 20.2728 1.13611e-13 -9.97689 13.1207 0.0159469 -11.2596 14.6447 0.00761157 -12.4898 16.0924 0.000914769 -13.6637 17.4685 -0.00449864 -14.7793 18.7769 -0.0088907 -15.835 20.0206 -0.0124589 -16.8301 21.202 -0.015355 -17.7645 22.3234 -0.0176973 -17.8021 22.4189 -0.0220043 -17.8284 22.4911 -0.0255345 -17.8423 22.5416 -0.0284089 -17.8431 22.5717 -0.0307265 -17.8303 22.5824 -0.0325694 -17.8035 22.5749 -0.0340058 -17.7624 22.55 -0.0350929 -8.36613 14.6538 0.0325583 -9.46478 16.2427 0.0155306 -10.534 17.7509 0.00186613 -11.5639 19.1861 -0.00917865 -12.5476 20.5543 -0.0181479 -13.4803 21.8602 -0.025449 -14.3588 23.1072 -0.0313928 -15.181 24.2982 -0.0362207 -15.1756 24.4011 -0.045092 -15.1697 24.4785 -0.0523992 -15.1602 24.533 -0.058387 -15.1449 24.5664 -0.063255 -15.1221 24.5805 -0.0671679 -15.0903 24.5765 -0.0702624 -15.0486 24.5558 -0.0726533 -6.74132 16.1729 0.050594 -7.60181 17.7885 0.0241031 -8.46812 19.3226 0.00289474 -9.32117 20.7856 -0.0142396 -10.1476 22.1854 -0.0281719 -10.9381 23.5276 -0.0395471 -11.6858 24.8167 -0.0488521 -12.3858 26.0561 -0.0564619 -12.3327 26.1452 -0.0704307 -12.2937 26.209 -0.0820273 -12.2636 26.2506 -0.0916257 -12.2382 26.2721 -0.0995297 -12.2141 26.2758 -0.105988 -12.1888 26.2631 -0.111208 -12.16 26.2356 -0.115361 -5.12304 17.6984 0.0710356 -5.67547 19.2959 0.0337632 -6.28713 20.815 0.00405042 -6.92499 22.2683 -0.0199214 -7.56615 23.6649 -0.0394369 -8.19436 25.0114 -0.0554289 -8.79788 26.3128 -0.0685916 -9.36815 27.5727 -0.0794517 -9.26661 27.6198 -0.0993663 -9.19907 27.6439 -0.116069 -9.15732 27.6482 -0.130073 -9.13479 27.6352 -0.141793 -9.1262 27.6071 -0.151566 -9.12726 27.5656 -0.159671 -9.13447 27.512 -0.166337 -3.54708 19.2663 0.095291 -3.69631 20.7866 0.0451086 -3.98683 22.2373 0.0053995 -4.36299 23.6323 -0.0265352 -4.78698 24.9811 -0.052545 -5.23234 26.2904 -0.0739395 -5.68005 27.5651 -0.0916721 -6.11624 28.8088 -0.106453 -5.9716 28.7761 -0.133539 -5.88749 28.725 -0.156528 -5.85189 28.6584 -0.176092 -5.85529 28.5788 -0.192768 -5.89001 28.488 -0.206988 -5.94983 28.3875 -0.219106 -6.02967 28.2787 -0.229411 -2.07558 20.9386 0.125579 -1.68427 22.2947 0.0590343 -1.56438 23.602 0.00703728 -1.62079 24.8722 -0.0345129 -1.7912 26.113 -0.0683097 -2.03315 27.3298 -0.0961956 -2.31676 28.5262 -0.119473 -2.62046 29.7049 -0.13909 -2.44711 29.5425 -0.17504 -2.36938 29.369 -0.205947 -2.37054 29.1865 -0.232673 -2.43743 28.9966 -0.255895 -2.55956 28.8005 -0.276155 -2.72849 28.5993 -0.293887 -2.93732 28.3939 -0.309445 -0.821532 22.8284 0.165744 0.323721 23.8778 0.0769942 0.980386 24.9272 0.00911054 1.31847 25.9766 -0.0444917 1.44326 27.026 -0.0878904 1.42344 28.0754 -0.123746 1.30572 29.1248 -0.153867 1.12298 30.1741 -0.179528 1.29682 29.8169 -0.226626 1.32882 29.4597 -0.267648 1.24164 29.1025 -0.303701 1.0528 28.7453 -0.335634 0.775995 28.3881 -0.364117 0.422137 28.0309 -0.389679 -1.04448e-14 27.6737 -0.412748 -20.2761 0.729408 -0.122709 -21.2069 -0.287991 -0.0569217 -22.1377 -0.871355 -0.00660151 -23.0685 -1.17169 0.0331323 -23.9993 -1.2825 0.0653024 -24.9301 -1.26481 0.0918809 -25.8609 -1.1601 0.114209 -26.7917 -0.997583 0.133231 -26.4737 -1.15166 0.168231 -26.1557 -1.1799 0.198717 -25.8377 -1.1024 0.225509 -25.5196 -0.93469 0.249241 -25.2016 -0.688921 0.270408 -24.8836 -0.374764 0.289404 -24.5656 6.18113e-15 0.306548 -18.5982 1.84398 -0.0929726 -19.8015 1.496 -0.0436439 -20.9613 1.38919 -0.00509922 -22.0883 1.43905 0.0257012 -23.1892 1.59023 0.050754 -24.2687 1.80501 0.071425 -25.3301 2.05687 0.0886799 -26.3759 2.32663 0.103221 -26.2306 2.17273 0.129938 -26.0756 2.10368 0.152906 -25.9125 2.10463 0.172768 -25.7429 2.16392 0.190027 -25.5678 2.27225 0.205084 -25.3882 2.42212 0.218262 -25.2048 2.60742 0.229825 -17.1134 3.15147 -0.0705491 -18.4625 3.28345 -0.0333487 -19.7498 3.541 -0.00391249 -20.9877 3.8747 0.0197604 -22.1845 4.25095 0.0390409 -23.3462 4.64623 0.0548999 -24.4773 5.04368 0.0680443 -25.5808 5.43095 0.0790008 -25.5506 5.30231 0.0991305 -25.5041 5.22739 0.116215 -25.4439 5.19554 0.130755 -25.3721 5.1983 0.143149 -25.2904 5.22888 0.153718 -25.2002 5.28177 0.162724 -25.1026 5.35244 0.170383 -15.7211 4.55159 -0.0525915 -17.1389 5.04157 -0.0249611 -18.4869 5.58424 -0.00293494 -19.7766 6.15025 0.0148352 -21.016 6.71925 0.0293015 -22.2109 7.27681 0.0411558 -23.3656 7.8125 0.0509126 -24.4836 8.31872 0.0589624 -24.5242 8.22813 0.0737627 -24.5444 8.16774 0.0861758 -24.5471 8.13026 0.0965839 -24.5345 8.10985 0.105295 -24.5084 8.10184 0.112559 -24.4705 8.10243 0.118583 -24.4219 8.1085 0.123538 -14.3663 5.98919 -0.0374575 -15.8002 6.75269 -0.0178194 -17.1617 7.52144 -0.00209754 -18.4601 8.27848 0.010604 -19.7023 9.01197 0.0209317 -20.8934 9.71351 0.0293636 -22.0374 10.3771 0.0362609 -23.1372 10.9985 0.0419013 -23.2151 10.9507 0.0522829 -23.2706 10.9155 0.0609017 -23.3063 10.8882 0.0680356 -23.3244 10.865 0.0739104 -23.3265 10.8432 0.0787112 -23.3143 10.8202 0.0825913 -23.2888 10.7942 0.0856785 -13.0173 7.43251 -0.0241046 -14.4275 8.40747 -0.0114817 -15.7659 9.35637 -0.0013522 -17.0397 10.2704 0.0068352 -18.254 11.1434 0.0134839 -19.4128 11.9712 0.0188958 -20.5195 12.7509 0.0233015 -21.5765 13.4806 0.02688 -21.6666 13.4751 0.0334732 -21.7342 13.469 0.0389042 -21.7815 13.4599 0.0433546 -21.8101 13.4456 0.046973 -21.8215 13.4247 0.0498816 -21.8171 13.3959 0.0521821 -21.7977 13.3583 0.0539596 -11.6557 8.86328 -0.0118064 -13.0082 10.0017 -0.00562722 -14.2931 11.0934 -0.000662843 -15.5144 12.1353 0.00335006 -16.6756 13.1254 0.00660577 -17.7793 14.0623 0.00925073 -18.8278 14.9455 0.0113974 -19.823 15.7748 0.0131334 -19.9066 15.8072 0.0163345 -19.9696 15.8297 0.0189582 -20.0134 15.8412 0.0210947 -20.0391 15.8412 0.0228174 -20.0478 15.829 0.0241873 -20.0402 15.8045 0.0252552 -20.0172 15.7673 0.0260635 -10.272 10.272 5.03329e-13 -11.5346 11.5346 2.62562e-13 -12.7373 12.7373 9.20509e-14 -13.8812 13.8812 -8.53185e-14 -14.9672 14.9672 -2.05711e-13 -15.9964 15.9964 -2.89898e-13 -16.9696 16.9696 -3.87729e-13 -17.888 17.888 -4.42943e-13 -17.9512 17.9512 -3.59592e-13 -17.9978 17.9978 -2.9411e-13 -18.0283 18.0283 -1.94103e-13 -18.043 18.043 -1.6086e-13 -18.0422 18.0422 -9.9259e-14 -18.0263 18.0263 -4.64049e-14 -17.9957 17.9957 -1.76869e-14 -8.86328 11.6557 0.0118064 -10.0017 13.0082 0.00562722 -11.0934 14.2931 0.000662843 -12.1353 15.5144 -0.00335006 -13.1254 16.6756 -0.00660577 -14.0623 17.7793 -0.00925073 -14.9455 18.8278 -0.0113974 -15.7748 19.823 -0.0131334 -15.8072 19.9066 -0.0163345 -15.8297 19.9696 -0.0189582 -15.8412 20.0134 -0.0210947 -15.8412 20.0391 -0.0228174 -15.829 20.0478 -0.0241873 -15.8045 20.0402 -0.0252552 -15.7673 20.0172 -0.0260635 -7.43251 13.0173 0.0241046 -8.40747 14.4275 0.0114817 -9.35637 15.7659 0.0013522 -10.2704 17.0397 -0.0068352 -11.1434 18.254 -0.0134839 -11.9712 19.4128 -0.0188958 -12.7509 20.5195 -0.0233015 -13.4806 21.5765 -0.02688 -13.4751 21.6666 -0.0334732 -13.469 21.7342 -0.0389042 -13.4599 21.7815 -0.0433546 -13.4456 21.8101 -0.046973 -13.4247 21.8215 -0.0498816 -13.3959 21.8171 -0.0521821 -13.3583 21.7977 -0.0539596 -5.98919 14.3663 0.0374575 -6.75269 15.8002 0.0178194 -7.52144 17.1617 0.00209754 -8.27848 18.4601 -0.010604 -9.01197 19.7023 -0.0209317 -9.71351 20.8934 -0.0293636 -10.3771 22.0374 -0.0362609 -10.9985 23.1372 -0.0419013 -10.9507 23.2151 -0.0522829 -10.9155 23.2706 -0.0609017 -10.8882 23.3063 -0.0680356 -10.865 23.3244 -0.0739104 -10.8432 23.3265 -0.0787112 -10.8202 23.3143 -0.0825913 -10.7942 23.2888 -0.0856785 -4.55159 15.7211 0.0525915 -5.04157 17.1389 0.0249611 -5.58424 18.4869 0.00293494 -6.15025 19.7766 -0.0148352 -6.71925 21.016 -0.0293015 -7.27681 22.2109 -0.0411558 -7.8125 23.3656 -0.0509126 -8.31872 24.4836 -0.0589624 -8.22813 24.5242 -0.0737627 -8.16774 24.5444 -0.0861758 -8.13026 24.5471 -0.0965839 -8.10985 24.5345 -0.105295 -8.10184 24.5084 -0.112559 -8.10243 24.4705 -0.118583 -8.1085 24.4219 -0.123538 -3.15147 17.1134 0.0705491 -3.28345 18.4625 0.0333487 -3.541 19.7498 0.00391249 -3.8747 20.9877 -0.0197604 -4.25095 22.1845 -0.0390409 -4.64623 23.3462 -0.0548999 -5.04368 24.4773 -0.0680443 -5.43095 25.5808 -0.0790008 -5.30231 25.5506 -0.0991305 -5.22739 25.5041 -0.116215 -5.19554 25.4439 -0.130755 -5.1983 25.3721 -0.143149 -5.22888 25.2904 -0.153718 -5.28177 25.2002 -0.162724 -5.35244 25.1026 -0.170383 -1.84398 18.5982 0.0929726 -1.496 19.8015 0.0436439 -1.38919 20.9613 0.00509922 -1.43905 22.0883 -0.0257012 -1.59023 23.1892 -0.050754 -1.80501 24.2687 -0.071425 -2.05687 25.3301 -0.0886799 -2.32663 26.3759 -0.103221 -2.17273 26.2306 -0.129938 -2.10368 26.0756 -0.152906 -2.10463 25.9125 -0.172768 -2.16392 25.7429 -0.190027 -2.27225 25.5678 -0.205084 -2.42212 25.3882 -0.218262 -2.60742 25.2048 -0.229825 -0.729408 20.2761 0.122709 0.287991 21.2069 0.0569217 0.871355 22.1377 0.00660151 1.17169 23.0685 -0.0331323 1.2825 23.9993 -0.0653024 1.26481 24.9301 -0.0918809 1.1601 25.8609 -0.114209 0.997583 26.7917 -0.133231 1.15166 26.4737 -0.168231 1.1799 26.1557 -0.198717 1.1024 25.8377 -0.225509 0.93469 25.5196 -0.249241 0.688921 25.2016 -0.270408 0.374764 24.8836 -0.289404 -6.18113e-15 24.5656 -0.306548 -17.7237 0.637285 -0.085022 -18.5359 -0.252262 -0.0393472 -19.3481 -0.762323 -0.00441109 -20.1603 -1.0249 0.0231751 -20.9726 -1.12174 0.04551 -21.7848 -1.10618 0.0639629 -22.597 -1.01448 0.0794648 -23.4093 -0.872182 0.0926712 -23.1304 -1.0065 0.117071 -22.8516 -1.03098 0.138324 -22.5728 -0.963161 0.157002 -22.294 -0.816581 0.173547 -22.0152 -0.601847 0.188303 -21.7363 -0.32739 0.201546 -21.4575 8.09862e-15 0.213498 -16.2578 1.61238 -0.0644182 -17.3082 1.30774 -0.0301689 -18.3207 1.21401 -0.00340727 -19.3044 1.25731 0.0179773 -20.2654 1.38926 0.0353711 -21.2076 1.57688 0.0497225 -22.1341 1.79698 0.061702 -23.0469 2.03281 0.0717971 -22.9188 1.89836 0.090423 -22.7821 1.83798 0.106436 -22.6385 1.83873 0.120283 -22.4892 1.89041 0.132316 -22.3351 1.98493 0.142814 -22.1771 2.11574 0.152001 -22.0158 2.27751 0.160064 -14.9604 2.75586 -0.0488815 -16.1384 2.87058 -0.0230523 -17.2623 3.09517 -0.0026143 -18.343 3.3864 0.0138218 -19.3879 3.71491 0.0272081 -20.4021 4.06013 0.0382186 -21.3894 4.40731 0.0473441 -22.3528 4.74566 0.0549504 -22.3251 4.63302 0.0689845 -22.2832 4.56729 0.0808959 -22.2293 4.53918 0.0910334 -22.1654 4.54131 0.0996748 -22.0928 4.56775 0.107044 -22.0128 4.6137 0.113324 -21.9264 4.67521 0.118665 -13.7438 3.98013 -0.0364392 -14.9818 4.40767 -0.0172544 -16.1589 4.88134 -0.00196111 -17.285 5.3755 0.0103768 -18.3671 5.87235 0.0204206 -19.4103 6.35927 0.0286506 -20.4185 6.82713 0.0354241 -21.3945 7.26929 0.0410123 -21.4286 7.18966 0.0513311 -21.445 7.13641 0.0599859 -21.446 7.10319 0.0672429 -21.4337 7.08491 0.0733168 -21.4097 7.07749 0.0783824 -21.3754 7.0776 0.0825834 -21.3318 7.08254 0.0860393 -12.5598 5.23705 -0.0259532 -13.8119 5.90358 -0.0123177 -15.0008 6.57477 -0.00140156 -16.1346 7.23579 0.00741722 -17.2192 7.87629 0.0145876 -18.2592 8.48892 0.0204415 -19.258 9.06846 0.0252297 -20.2183 9.61115 0.0291452 -20.285 9.5687 0.0363834 -20.3322 9.53724 0.0423929 -20.3621 9.51273 0.0473672 -20.3766 9.49192 0.0514639 -20.3773 9.47225 0.0548119 -20.3654 9.45164 0.057518 -20.3421 9.42842 0.0596715 -11.3807 6.49888 -0.0167014 -12.6122 7.35016 -0.00793676 -13.781 8.17873 -0.000903531 -14.8933 8.97686 0.00478103 -15.9536 9.73921 0.00939708 -16.9655 10.4621 0.0131543 -17.9318 11.143 0.0162128 -18.8547 11.7803 0.0186969 -18.9321 11.7745 0.0232938 -18.9899 11.7684 0.0270807 -19.0299 11.7596 0.030184 -19.0537 11.7464 0.0327073 -19.0626 11.7274 0.0347359 -19.0576 11.7016 0.0363405 -19.0396 11.6681 0.0375806 -10.1906 7.74966 -0.00818032 -11.3718 8.74374 -0.00388982 -12.4937 9.69709 -0.000442908 -13.5603 10.6069 0.00234328 -14.5742 11.4715 0.00460365 -15.538 12.2897 0.00643989 -16.4536 13.0609 0.00793009 -17.3225 13.7851 0.0091352 -17.3943 13.8124 0.0113671 -17.4482 13.831 0.0131966 -17.4853 13.8401 0.0146864 -17.5066 13.8392 0.0158878 -17.5131 13.8277 0.0168433 -17.5054 13.8055 0.0175881 -17.4844 13.7723 0.0181521 -8.98109 8.98109 2.4156e-13 -10.0837 10.0837 4.91087e-14 -11.134 11.134 -1.01511e-13 -12.1329 12.1329 -2.14455e-13 -13.0812 13.0812 -3.03901e-13 -13.9799 13.9799 -3.93465e-13 -14.8298 14.8298 -4.63182e-13 -15.6317 15.6317 -5.03488e-13 -15.6857 15.6857 -4.38736e-13 -15.7254 15.7254 -3.7103e-13 -15.7509 15.7509 -3.19126e-13 -15.7627 15.7627 -2.67534e-13 -15.7611 15.7611 -2.24592e-13 -15.7463 15.7463 -1.67649e-13 -15.7187 15.7187 -1.54984e-13 -7.74966 10.1906 0.00818032 -8.74374 11.3718 0.00388982 -9.69709 12.4937 0.000442908 -10.6069 13.5603 -0.00234328 -11.4715 14.5742 -0.00460365 -12.2897 15.538 -0.00643989 -13.0609 16.4536 -0.00793009 -13.7851 17.3225 -0.0091352 -13.8124 17.3943 -0.0113671 -13.831 17.4482 -0.0131966 -13.8401 17.4853 -0.0146864 -13.8392 17.5066 -0.0158878 -13.8277 17.5131 -0.0168433 -13.8055 17.5054 -0.0175881 -13.7723 17.4844 -0.0181521 -6.49888 11.3807 0.0167014 -7.35016 12.6122 0.00793676 -8.17873 13.781 0.000903531 -8.97686 14.8933 -0.00478103 -9.73921 15.9536 -0.00939708 -10.4621 16.9655 -0.0131543 -11.143 17.9318 -0.0162128 -11.7803 18.8547 -0.0186969 -11.7745 18.9321 -0.0232938 -11.7684 18.9899 -0.0270807 -11.7596 19.0299 -0.030184 -11.7464 19.0537 -0.0327073 -11.7274 19.0626 -0.0347359 -11.7016 19.0576 -0.0363405 -11.6681 19.0396 -0.0375806 -5.23705 12.5598 0.0259532 -5.90358 13.8119 0.0123177 -6.57477 15.0008 0.00140156 -7.23579 16.1346 -0.00741722 -7.87629 17.2192 -0.0145876 -8.48892 18.2592 -0.0204415 -9.06846 19.258 -0.0252297 -9.61115 20.2183 -0.0291452 -9.5687 20.285 -0.0363834 -9.53724 20.3322 -0.0423929 -9.51273 20.3621 -0.0473672 -9.49192 20.3766 -0.0514639 -9.47225 20.3773 -0.0548119 -9.45164 20.3654 -0.057518 -9.42842 20.3421 -0.0596715 -3.98013 13.7438 0.0364392 -4.40767 14.9818 0.0172544 -4.88134 16.1589 0.00196111 -5.3755 17.285 -0.0103768 -5.87235 18.3671 -0.0204206 -6.35927 19.4103 -0.0286506 -6.82713 20.4185 -0.0354241 -7.26929 21.3945 -0.0410123 -7.18966 21.4286 -0.0513311 -7.13641 21.445 -0.0599859 -7.10319 21.446 -0.0672429 -7.08491 21.4337 -0.0733168 -7.07749 21.4097 -0.0783824 -7.0776 21.3754 -0.0825834 -7.08254 21.3318 -0.0860393 -2.75586 14.9604 0.0488815 -2.87058 16.1384 0.0230523 -3.09517 17.2623 0.0026143 -3.3864 18.343 -0.0138218 -3.71491 19.3879 -0.0272081 -4.06013 20.4021 -0.0382186 -4.40731 21.3894 -0.0473441 -4.74566 22.3528 -0.0549504 -4.63302 22.3251 -0.0689845 -4.56729 22.2832 -0.0808959 -4.53918 22.2293 -0.0910334 -4.54131 22.1654 -0.0996748 -4.56775 22.0928 -0.107044 -4.6137 22.0128 -0.113324 -4.67521 21.9264 -0.118665 -1.61238 16.2578 0.0644182 -1.30774 17.3082 0.0301689 -1.21401 18.3207 0.00340727 -1.25731 19.3044 -0.0179773 -1.38926 20.2654 -0.0353711 -1.57688 21.2076 -0.0497225 -1.79698 22.1341 -0.061702 -2.03281 23.0469 -0.0717971 -1.89836 22.9188 -0.090423 -1.83798 22.7821 -0.106436 -1.83873 22.6385 -0.120283 -1.89041 22.4892 -0.132316 -1.98493 22.3351 -0.142814 -2.11574 22.1771 -0.152001 -2.27751 22.0158 -0.160064 -0.637285 17.7237 0.085022 0.252262 18.5359 0.0393472 0.762323 19.3481 0.00441109 1.0249 20.1603 -0.0231751 1.12174 20.9726 -0.04551 1.10618 21.7848 -0.0639629 1.01448 22.597 -0.0794648 0.872182 23.4093 -0.0926712 1.0065 23.1304 -0.117071 1.03098 22.8516 -0.138324 0.963161 22.5728 -0.157002 0.816581 22.294 -0.173547 0.601847 22.0152 -0.188303 0.32739 21.7363 -0.201546 -8.09862e-15 21.4575 -0.213498 -15.1713 0.545161 -0.0526819 -15.8649 -0.216532 -0.0242707 -16.5586 -0.653292 -0.00253929 -17.2522 -0.878117 0.0146202 -17.9459 -0.960987 0.0285133 -18.6395 -0.947552 0.0399915 -19.3332 -0.868866 0.0496342 -20.0268 -0.746782 0.0578491 -19.7872 -0.861336 0.073146 -19.5476 -0.882058 0.0864699 -19.3079 -0.82392 0.0981794 -19.0683 -0.698473 0.108551 -18.8287 -0.514772 0.117802 -18.5891 -0.280017 0.126105 -18.3494 8.07982e-15 0.133597 -13.9174 1.38078 -0.0399152 -14.815 1.11948 -0.0186092 -15.6801 1.03882 -0.00196143 -16.5206 1.07557 0.0113411 -17.3416 1.18828 0.022161 -18.1466 1.34875 0.031088 -18.9381 1.5371 0.0385395 -19.7178 1.73898 0.0448186 -19.6069 1.62398 0.0564961 -19.4887 1.57228 0.0665358 -19.3645 1.57282 0.0752177 -19.2355 1.6169 0.0827621 -19.1024 1.69761 0.0893441 -18.966 1.80937 0.0951052 -18.8267 1.94761 0.100161 -12.8075 2.36025 -0.0302883 -13.8142 2.45772 -0.0142194 -14.7748 2.64934 -0.00150495 -15.6984 2.89811 0.00871963 -16.5913 3.17888 0.0170466 -17.4579 3.47403 0.0238954 -18.3016 3.77094 0.0295714 -19.1248 4.06037 0.0343022 -19.0996 3.96373 0.0431014 -19.0623 3.90719 0.05057 -19.0148 3.88282 0.0569266 -18.9587 3.88432 0.0623453 -18.8952 3.90663 0.0669667 -18.8254 3.94563 0.0709052 -18.7502 3.99797 0.0742552 -11.7664 3.40868 -0.0225787 -12.8247 3.77377 -0.0106431 -13.8308 4.17845 -0.00112893 -14.7933 4.60076 0.00654629 -15.7181 5.02545 0.0127941 -16.6097 5.44172 0.0179132 -17.4713 5.84176 0.0221262 -18.3055 6.21986 0.0256015 -18.333 6.15118 0.0320716 -18.3455 6.10509 0.0374986 -18.3449 6.07613 0.0420495 -18.333 6.05998 0.0458588 -18.311 6.05313 0.049036 -18.2803 6.05277 0.0516713 -18.2417 6.05657 0.0538396 -10.7532 4.48491 -0.0160813 -11.8237 5.05446 -0.00759796 -12.8399 5.62809 -0.000806822 -13.809 6.19309 0.00467922 -14.7361 6.74061 0.00913951 -15.625 7.26434 0.0127806 -16.4787 7.75981 0.0157586 -17.2994 8.2238 0.0181936 -17.3549 8.18669 0.0227323 -17.3937 8.15901 0.0265008 -17.4178 8.1373 0.0296205 -17.4289 8.1188 0.03219 -17.4281 8.10131 0.0342903 -17.4166 8.08306 0.0359882 -17.3953 8.06262 0.0373398 -9.74413 5.56525 -0.0103487 -10.7969 6.29286 -0.00489566 -11.7961 7.00109 -0.000520127 -12.7469 7.68334 0.00301616 -13.6532 8.33503 0.00588753 -14.5182 8.953 0.00822448 -15.3441 9.53511 0.0101266 -16.1329 10.0799 0.0116713 -16.1976 10.074 0.0145539 -16.2456 10.0678 0.0169288 -16.2784 10.0593 0.0188752 -16.2974 10.0472 0.020458 -16.3036 10.0301 0.0217307 -16.2981 10.0072 0.0227378 -16.2815 9.97781 0.0235163 -8.72549 6.63604 -0.00506874 -9.73527 7.4858 -0.00239937 -10.6944 8.30075 -0.000254964 -11.6061 9.07852 0.00147828 -12.4729 9.81758 0.00288431 -13.2968 10.517 0.00402642 -14.0794 11.1763 0.00495319 -14.8221 11.7953 0.00570256 -14.8821 11.8175 0.00710213 -14.9267 11.8323 0.0082495 -14.9571 11.8391 0.00918393 -14.9741 11.8372 0.00993762 -14.9784 11.8264 0.0105371 -14.9707 11.8065 0.0110047 -14.9516 11.7772 0.0113588 -7.69019 7.69019 2.97537e-14 -8.63275 8.63275 -1.1491e-13 -9.53062 9.53062 -2.43288e-13 -10.3845 10.3845 -3.37076e-13 -11.1952 11.1952 -4.1265e-13 -11.9634 11.9634 -4.80553e-13 -12.6899 12.6899 -5.27856e-13 -13.3754 13.3754 -5.66403e-13 -13.4203 13.4203 -5.04831e-13 -13.4529 13.4529 -4.43088e-13 -13.4736 13.4736 -3.91276e-13 -13.4825 13.4825 -3.61312e-13 -13.48 13.48 -3.053e-13 -13.4663 13.4663 -2.87021e-13 -13.4416 13.4416 -2.54773e-13 -6.63604 8.72549 0.00506874 -7.4858 9.73527 0.00239937 -8.30075 10.6944 0.000254964 -9.07852 11.6061 -0.00147828 -9.81758 12.4729 -0.00288431 -10.517 13.2968 -0.00402642 -11.1763 14.0794 -0.00495319 -11.7953 14.8221 -0.00570256 -11.8175 14.8821 -0.00710213 -11.8323 14.9267 -0.0082495 -11.8391 14.9571 -0.00918393 -11.8372 14.9741 -0.00993762 -11.8264 14.9784 -0.0105371 -11.8065 14.9707 -0.0110047 -11.7772 14.9516 -0.0113588 -5.56525 9.74413 0.0103487 -6.29286 10.7969 0.00489566 -7.00109 11.7961 0.000520127 -7.68334 12.7469 -0.00301616 -8.33503 13.6532 -0.00588753 -8.953 14.5182 -0.00822448 -9.53511 15.3441 -0.0101266 -10.0799 16.1329 -0.0116713 -10.074 16.1976 -0.0145539 -10.0678 16.2456 -0.0169288 -10.0593 16.2784 -0.0188752 -10.0472 16.2974 -0.020458 -10.0301 16.3036 -0.0217307 -10.0072 16.2981 -0.0227378 -9.97781 16.2815 -0.0235163 -4.48491 10.7532 0.0160813 -5.05446 11.8237 0.00759796 -5.62809 12.8399 0.000806822 -6.19309 13.809 -0.00467922 -6.74061 14.7361 -0.00913951 -7.26434 15.625 -0.0127806 -7.75981 16.4787 -0.0157586 -8.2238 17.2994 -0.0181936 -8.18669 17.3549 -0.0227323 -8.15901 17.3937 -0.0265008 -8.1373 17.4178 -0.0296205 -8.1188 17.4289 -0.03219 -8.10131 17.4281 -0.0342903 -8.08306 17.4166 -0.0359882 -8.06262 17.3953 -0.0373398 -3.40868 11.7664 0.0225787 -3.77377 12.8247 0.0106431 -4.17845 13.8308 0.00112893 -4.60076 14.7933 -0.00654629 -5.02545 15.7181 -0.0127941 -5.44172 16.6097 -0.0179132 -5.84176 17.4713 -0.0221262 -6.21986 18.3055 -0.0256015 -6.15118 18.333 -0.0320716 -6.10509 18.3455 -0.0374986 -6.07613 18.3449 -0.0420495 -6.05998 18.333 -0.0458588 -6.05313 18.311 -0.049036 -6.05277 18.2803 -0.0516713 -6.05657 18.2417 -0.0538396 -2.36025 12.8075 0.0302883 -2.45772 13.8142 0.0142194 -2.64934 14.7748 0.00150495 -2.89811 15.6984 -0.00871963 -3.17888 16.5913 -0.0170466 -3.47403 17.4579 -0.0238954 -3.77094 18.3016 -0.0295714 -4.06037 19.1248 -0.0343022 -3.96373 19.0996 -0.0431014 -3.90719 19.0623 -0.05057 -3.88282 19.0148 -0.0569266 -3.88432 18.9587 -0.0623453 -3.90663 18.8952 -0.0669667 -3.94563 18.8254 -0.0709052 -3.99797 18.7502 -0.0742552 -1.38078 13.9174 0.0399152 -1.11948 14.815 0.0186092 -1.03882 15.6801 0.00196143 -1.07557 16.5206 -0.0113411 -1.18828 17.3416 -0.022161 -1.34875 18.1466 -0.031088 -1.5371 18.9381 -0.0385395 -1.73898 19.7178 -0.0448186 -1.62398 19.6069 -0.0564961 -1.57228 19.4887 -0.0665358 -1.57282 19.3645 -0.0752177 -1.6169 19.2355 -0.0827621 -1.69761 19.1024 -0.0893441 -1.80937 18.966 -0.0951052 -1.94761 18.8267 -0.100161 -0.545161 15.1713 0.0526819 0.216532 15.8649 0.0242707 0.653292 16.5586 0.00253929 0.878117 17.2522 -0.0146202 0.960987 17.9459 -0.0285133 0.947552 18.6395 -0.0399915 0.868866 19.3332 -0.0496342 0.746782 20.0268 -0.0578491 0.861336 19.7872 -0.073146 0.882058 19.5476 -0.0864699 0.82392 19.3079 -0.0981794 0.698473 19.0683 -0.108551 0.514772 18.8287 -0.117802 0.280017 18.5891 -0.126105 -8.07982e-15 18.3494 -0.133597 -12.6189 0.453037 -0.0256891 -13.1939 -0.180803 -0.0116922 -13.769 -0.544261 -0.000986099 -14.3441 -0.731333 0.00746763 -14.9192 -0.800229 0.0143121 -15.4942 -0.788924 0.019967 -16.0693 -0.723248 0.0247175 -16.6444 -0.621381 0.0287646 -16.444 -0.716174 0.036455 -16.2435 -0.733138 0.0431536 -16.0431 -0.684678 0.0490405 -15.8427 -0.580364 0.0542549 -15.6422 -0.427698 0.0589058 -15.4418 -0.232643 0.0630798 -15.2414 3.83499e-15 0.0668468 -11.577 1.14919 -0.0194638 -12.3217 0.93122 -0.00896483 -13.0394 0.863638 -0.000761695 -13.7367 0.893824 0.00579276 -14.4178 0.987312 0.0111236 -15.0855 1.12061 0.0155216 -15.742 1.27721 0.0191924 -16.3888 1.44515 0.0222854 -16.2951 1.34961 0.028157 -16.1952 1.30658 0.0332053 -16.0905 1.30691 0.0375712 -15.9818 1.3434 0.0413653 -15.8697 1.4103 0.0446756 -15.7548 1.50299 0.0475734 -15.6377 1.6177 0.0501164 -10.6545 1.96463 -0.0147694 -11.4901 2.04485 -0.0068501 -12.2873 2.20351 -0.000584427 -13.0537 2.40981 0.00445376 -13.7947 2.64284 0.00855647 -14.5138 2.88793 0.0119305 -15.2138 3.13458 0.0147264 -15.8968 3.37508 0.0170563 -15.8741 3.29444 0.0214812 -15.8414 3.24709 0.0252374 -15.8002 3.22646 0.0284348 -15.752 3.22733 0.0311608 -15.6976 3.2455 0.033486 -15.6381 3.27757 0.0354681 -15.574 3.32074 0.0371543 -9.78912 2.83722 -0.01101 -10.6676 3.13987 -0.00512721 -11.5027 3.47556 -0.000438405 -12.3016 3.82601 0.00334368 -13.0692 4.17855 0.00642193 -13.8091 4.52418 0.00894372 -14.5241 4.85638 0.0110187 -15.2164 5.17043 0.01273 -15.2375 5.11271 0.0159841 -15.246 5.07376 0.018714 -15.2438 5.04906 0.0210037 -15.2322 5.03504 0.0229206 -15.2124 5.02878 0.02452 -15.1852 5.02794 0.0258469 -15.1516 5.0306 0.0269392 -8.9467 3.73278 -0.0078417 -9.83538 4.20535 -0.00366025 -10.679 4.68141 -0.000313319 -11.4835 5.1504 0.00239003 -12.253 5.60493 0.00458754 -12.9909 6.03976 0.00638111 -13.6994 6.45115 0.00784769 -14.3806 6.83644 0.00904649 -14.4248 6.80468 0.0113295 -14.4553 6.78078 0.0132255 -14.4736 6.76187 0.0147954 -14.4811 6.74568 0.0160889 -14.4788 6.73037 0.0171465 -14.4677 6.71447 0.018002 -14.4485 6.69681 0.0186833 -8.10757 4.63162 -0.00504629 -8.98165 5.23555 -0.00235844 -9.81116 5.82345 -0.000201984 -10.6005 6.38982 0.00154058 -11.3529 6.93085 0.00295522 -12.0709 7.44391 0.00410632 -12.7564 7.9272 0.005043 -13.4112 8.37953 0.00580339 -13.4631 8.37345 0.00725351 -13.5012 8.36715 0.00844846 -13.5269 8.35905 0.00942814 -13.541 8.34792 0.0102251 -13.5447 8.33276 0.0108662 -13.5386 8.31284 0.0113738 -13.5234 8.28755 0.0117666 -7.2604 5.52243 -0.00247166 -8.09878 6.22786 -0.00115588 -8.89509 6.90442 -9.90119e-05 -9.65199 7.55012 0.000755067 -10.3716 8.16368 0.00144777 -11.0555 8.74436 0.00201031 -11.7051 9.29173 0.00246665 -12.3217 9.80564 0.00283551 -12.3698 9.82269 0.00353961 -12.4053 9.83366 0.00411699 -12.429 9.83799 0.00458737 -12.4416 9.83524 0.00496691 -12.4437 9.82514 0.00526899 -12.4359 9.80747 0.00550473 -12.4187 9.7821 0.00568349 -6.3993 6.3993 -1.45887e-13 -7.18184 7.18184 -2.62535e-13 -7.92726 7.92726 -3.5963e-13 -8.63619 8.63619 -4.35456e-13 -9.30922 9.30922 -4.89852e-13 -9.94699 9.94699 -5.40885e-13 -10.5501 10.5501 -5.76316e-13 -11.1191 11.1191 -5.98869e-13 -11.1549 11.1549 -5.4599e-13 -11.1805 11.1805 -5.02145e-13 -11.1962 11.1962 -4.55945e-13 -11.2023 11.2023 -4.10102e-13 -11.1989 11.1989 -3.84056e-13 -11.1862 11.1862 -3.49244e-13 -11.1646 11.1646 -3.26781e-13 -5.52243 7.2604 0.00247166 -6.22786 8.09878 0.00115588 -6.90442 8.89509 9.90119e-05 -7.55012 9.65199 -0.000755067 -8.16368 10.3716 -0.00144777 -8.74436 11.0555 -0.00201031 -9.29173 11.7051 -0.00246665 -9.80564 12.3217 -0.00283551 -9.82269 12.3698 -0.00353961 -9.83366 12.4053 -0.00411699 -9.83799 12.429 -0.00458737 -9.83524 12.4416 -0.00496691 -9.82514 12.4437 -0.00526899 -9.80747 12.4359 -0.00550473 -9.7821 12.4187 -0.00568349 -4.63162 8.10757 0.00504629 -5.23555 8.98165 0.00235844 -5.82345 9.81116 0.000201984 -6.38982 10.6005 -0.00154058 -6.93085 11.3529 -0.00295522 -7.44391 12.0709 -0.00410632 -7.9272 12.7564 -0.005043 -8.37953 13.4112 -0.00580339 -8.37345 13.4631 -0.00725351 -8.36715 13.5012 -0.00844846 -8.35905 13.5269 -0.00942814 -8.34792 13.541 -0.0102251 -8.33276 13.5447 -0.0108662 -8.31284 13.5386 -0.0113738 -8.28755 13.5234 -0.0117666 -3.73278 8.9467 0.0078417 -4.20535 9.83538 0.00366025 -4.68141 10.679 0.000313319 -5.1504 11.4835 -0.00239003 -5.60493 12.253 -0.00458754 -6.03976 12.9909 -0.00638111 -6.45115 13.6994 -0.00784769 -6.83644 14.3806 -0.00904649 -6.80468 14.4248 -0.0113295 -6.78078 14.4553 -0.0132255 -6.76187 14.4736 -0.0147954 -6.74568 14.4811 -0.0160889 -6.73037 14.4788 -0.0171465 -6.71447 14.4677 -0.018002 -6.69681 14.4485 -0.0186833 -2.83722 9.78912 0.01101 -3.13987 10.6676 0.00512721 -3.47556 11.5027 0.000438405 -3.82601 12.3016 -0.00334368 -4.17855 13.0692 -0.00642193 -4.52418 13.8091 -0.00894372 -4.85638 14.5241 -0.0110187 -5.17043 15.2164 -0.01273 -5.11271 15.2375 -0.0159841 -5.07376 15.246 -0.018714 -5.04906 15.2438 -0.0210037 -5.03504 15.2322 -0.0229206 -5.02878 15.2124 -0.02452 -5.02794 15.1852 -0.0258469 -5.0306 15.1516 -0.0269392 -1.96463