<?xml version="1.0"?> 
<VTKFile type="StructuredGrid" version="0.1"> 
<StructuredGrid WholeExtent="0 14 0 14 0 29"> 
<Piece Extent="0 14 0 14 0 29"> 
<PointData>
<DataArray type="Float32" Name="hfield" format="ascii" NumberOfComponents="3"> 
-3191.41 -104.053 3.12866e-10 -3298.87 60.8388 3.24016e-10 -3406.32 155.562 3.30793e-10 -3513.78 203.88 3.36699e-10 -3621.24 220.509 3.41345e-10 -3728.7 215.05 3.43761e-10 -3836.15 194.033 3.49136e-10 -3943.61 162.054 3.51179e-10 -3871.83 175.995 3.75451e-10 -3800.06 174.691 3.92921e-10 -3728.28 160.29 4.10408e-10 -3656.5 134.449 4.25054e-10 -3584.72 98.4651 4.40125e-10 -3512.95 53.3719 4.53724e-10 -3441.17 0 4.63023e-10 -2950.21 -303.908 2.50492e-10 -3100.98 -236.901 2.66631e-10 -3245.07 -210.26 2.77148e-10 -3384.16 -210.492 2.86499e-10 -3519.32 -228.756 2.93771e-10 -3651.32 -259.023 2.96984e-10 -3780.67 -297.045 3.04036e-10 -3907.76 -339.749 3.06691e-10 -3855.26 -318.037 3.2833e-10 -3801.89 -306.981 3.4488e-10 -3747.85 -304.949 3.59816e-10 -3693.29 -310.66 3.71449e-10 -3638.34 -323.087 3.81425e-10 -3583.1 -341.404 3.91748e-10 -3527.64 -364.931 3.99861e-10 -2731.89 -526.64 2.04429e-10 -2906.64 -530.03 2.22961e-10 -3071.92 -555.628 2.37321e-10 -3229.72 -595.44 2.49529e-10 -3381.39 -644.024 2.5632e-10 -3527.89 -697.562 2.63729e-10 -3669.93 -753.306 2.66466e-10 -3808.03 -809.24 2.71942e-10 -3768.78 -784.129 2.88168e-10 -3728.08 -766.145 3.05243e-10 -3686.22 -754.093 3.19274e-10 -3643.44 -747.022 3.29916e-10 -3599.92 -744.162 3.39852e-10 -3555.81 -744.886 3.47299e-10 -3511.24 -748.678 3.52008e-10 -2523.25 -759.044 1.68005e-10 -2710.03 -814.971 1.89636e-10 -2886.24 -881.469 2.05826e-10 -3053.71 -953.735 2.1778e-10 -3213.74 -1028.43 2.27927e-10 -3367.28 -1103.16 2.33355e-10 -3515.05 -1176.22 2.39274e-10 -3657.57 -1246.31 2.42727e-10 -3626.93 -1220.37 2.6151e-10 -3594.5 -1198.87 2.75121e-10 -3560.6 -1180.97 2.87107e-10 -3525.47 -1166 2.95087e-10 -3489.33 -1153.42 3.02641e-10 -3452.33 -1142.78 3.0827e-10 -3414.64 -1133.72 3.1288e-10 -2317.01 -993.858 1.38159e-10 -2507.67 -1089.85 1.62277e-10 -2687.49 -1188.71 1.80433e-10 -2858.01 -1287.62 1.93869e-10 -3020.32 -1384.61 2.04006e-10 -3175.27 -1478.26 2.1188e-10 -3323.48 -1567.57 2.181e-10 -3465.46 -1651.79 2.21567e-10 -3439.99 -1626.41 2.39052e-10 -3412.61 -1603.43 2.5277e-10 -3383.58 -1582.31 2.63735e-10 -3353.16 -1562.6 2.71951e-10 -3321.53 -1543.97 2.78964e-10 -3288.86 -1526.11 2.8274e-10 -3255.29 -1508.81 2.8629e-10 -2109 -1226.9 1.1257e-10 -2297.34 -1353.74 1.38285e-10 -2475.16 -1478.24 1.57785e-10 -2643.59 -1598.93 1.73146e-10 -2803.48 -1714.76 1.84467e-10 -2955.49 -1825 1.93228e-10 -3100.13 -1929.15 1.99328e-10 -3237.81 -2026.85 2.03308e-10 -3215.05 -2002.65 2.20792e-10 -3190.42 -1979.32 2.35282e-10 -3164.17 -1956.55 2.45675e-10 -3136.48 -1934.09 2.53865e-10 -3107.52 -1911.76 2.59867e-10 -3077.42 -1889.39 2.63574e-10 -3046.3 -1866.87 2.66066e-10 -1896.82 -1455.77 8.9995e-11 -2077.59 -1606.26 1.17799e-10 -2248.68 -1750.91 1.39224e-10 -2410.79 -1889.16 1.55913e-10 -2564.45 -2020.65 1.68753e-10 -2710.07 -2145.14 1.77967e-10 -2848 -2262.49 1.85411e-10 -2978.54 -2372.62 1.90355e-10 -2956.73 -2349.68 2.08172e-10 -2933.35 -2326.48 2.22036e-10 -2908.53 -2302.91 2.33188e-10 -2882.41 -2278.86 2.41454e-10 -2855.08 -2254.28 2.47236e-10 -2826.65 -2229.1 2.51307e-10 -2797.18 -2203.31 2.53994e-10 -1679.2 -1679.2 6.92999e-11 -1847.43 -1847.43 9.94323e-11 -2007.48 -2007.48 1.23028e-10 -2159.49 -2159.49 1.4105e-10 -2303.6 -2303.6 1.55502e-10 -2439.93 -2439.93 1.66274e-10 -2568.63 -2568.63 1.74338e-10 -2689.83 -2689.83 1.80434e-10 -2667.82 -2667.82 1.9905e-10 -2644.75 -2644.75 2.1385e-10 -2620.66 -2620.66 2.25261e-10 -2595.57 -2595.57 2.34066e-10 -2569.51 -2569.51 2.40444e-10 -2542.51 -2542.51 2.44924e-10 -2514.61 -2514.61 2.4764e-10 -1455.77 -1896.82 7.95484e-11 -1606.26 -2077.59 1.05883e-10 -1750.91 -2248.68 1.26384e-10 -1889.16 -2410.79 1.42133e-10 -2020.65 -2564.45 1.54284e-10 -2145.14 -2710.07 1.63448e-10 -2262.49 -2848 1.70552e-10 -2372.62 -2978.54 1.75761e-10 -2349.68 -2956.73 1.86242e-10 -2326.48 -2933.35 1.94217e-10 -2302.91 -2908.53 2.00327e-10 -2278.86 -2882.41 2.04911e-10 -2254.28 -2855.08 2.07743e-10 -2229.1 -2826.65 2.09212e-10 -2203.31 -2797.18 2.09411e-10 -1226.9 -2109 9.15328e-11 -1353.74 -2297.34 1.14184e-10 -1478.24 -2475.16 1.31685e-10 -1598.93 -2643.59 1.44879e-10 -1714.76 -2803.48 1.55511e-10 -1825 -2955.49 1.63215e-10 -1929.15 -3100.13 1.68432e-10 -2026.85 -3237.81 1.7323e-10 -2002.65 -3215.05 1.75828e-10 -1979.32 -3190.42 1.77694e-10 -1956.55 -3164.17 1.77941e-10 -1934.09 -3136.48 1.77605e-10 -1911.76 -3107.52 1.76979e-10 -1889.39 -3077.42 1.75916e-10 -1866.87 -3046.3 1.73896e-10 -993.858 -2317.01 1.05219e-10 -1089.85 -2507.67 1.23853e-10 -1188.71 -2687.49 1.38933e-10 -1287.62 -2858.01 1.49963e-10 -1384.61 -3020.32 1.58622e-10 -1478.26 -3175.27 1.65087e-10 -1567.57 -3323.48 1.6874e-10 -1651.79 -3465.46 1.72407e-10 -1626.41 -3439.99 1.67087e-10 -1603.43 -3412.61 1.61613e-10 -1582.31 -3383.58 1.56525e-10 -1562.6 -3353.16 1.52571e-10 -1543.97 -3321.53 1.47213e-10 -1526.11 -3288.86 1.42854e-10 -1508.81 -3255.29 1.38287e-10 -759.044 -2523.25 1.21925e-10 -814.971 -2710.03 1.37117e-10 -881.469 -2886.24 1.48617e-10 -953.735 -3053.71 1.57318e-10 -1028.43 -3213.74 1.64061e-10 -1103.16 -3367.28 1.69782e-10 -1176.22 -3515.05 1.72552e-10 -1246.31 -3657.57 1.75105e-10 -1220.37 -3626.93 1.59632e-10 -1198.87 -3594.5 1.46962e-10 -1180.97 -3560.6 1.35502e-10 -1166 -3525.47 1.26603e-10 -1153.42 -3489.33 1.17533e-10 -1142.78 -3452.33 1.09055e-10 -1133.72 -3414.64 1.00932e-10 -526.64 -2731.89 1.42485e-10 -530.03 -2906.64 1.52976e-10 -555.628 -3071.92 1.62401e-10 -595.44 -3229.72 1.68235e-10 -644.024 -3381.39 1.72645e-10 -697.562 -3527.89 1.74581e-10 -753.306 -3669.93 1.7717e-10 -809.24 -3808.03 1.78341e-10 -784.129 -3768.78 1.54835e-10 -766.145 -3728.08 1.32148e-10 -754.093 -3686.22 1.1415e-10 -747.022 -3643.44 9.57425e-11 -744.162 -3599.92 8.13831e-11 -744.886 -3555.81 6.80822e-11 -748.678 -3511.24 5.68181e-11 -303.908 -2950.21 1.70076e-10 -236.901 -3100.98 1.74969e-10 -210.26 -3245.07 1.79638e-10 -210.492 -3384.16 1.83014e-10 -228.756 -3519.32 1.84562e-10 -259.023 -3651.32 1.8641e-10 -297.045 -3780.67 1.8542e-10 -339.749 -3907.76 1.88207e-10 -318.037 -3855.26 1.47774e-10 -306.981 -3801.89 1.17128e-10 -304.949 -3747.85 8.69228e-11 -310.66 -3693.29 6.23157e-11 -323.087 -3638.34 4.03682e-11 -341.404 -3583.1 1.9631e-11 -364.931 -3527.64 2.34299e-12 -104.053 -3191.41 2.07365e-10 60.8388 -3298.87 2.04585e-10 155.562 -3406.32 2.02483e-10 203.88 -3513.78 2.0104e-10 220.509 -3621.24 2.0043e-10 215.05 -3728.7 2.01311e-10 194.033 -3836.15 1.97868e-10 162.054 -3943.61 1.97815e-10 175.995 -3871.83 1.42592e-10 174.691 -3800.06 9.80142e-11 160.29 -3728.28 5.62763e-11 134.449 -3656.5 2.09964e-11 98.4651 -3584.72 -1.30602e-11 53.3719 -3512.95 -4.3201e-11 -8.65858e-13 -3441.17 -6.79614e-11 -3435.28 -112.005 2.90129e-10 -3550.95 65.4879 3.52063e-10 -3666.62 167.449 3.98656e-10 -3782.29 219.46 4.35553e-10 -3897.96 237.36 4.65235e-10 -4013.63 231.483 4.89649e-10 -4129.3 208.86 5.10369e-10 -4244.97 174.437 5.29908e-10 -4167.71 189.444 5.60703e-10 -4090.44 188.04 5.89253e-10 -4013.18 172.539 6.13013e-10 -3935.92 144.723 6.35342e-10 -3858.66 105.989 6.56087e-10 -3781.4 57.4504 6.73879e-10 -3704.13 6.99018e-13 6.90079e-10 -3175.66 -327.131 2.45454e-10 -3337.94 -255.005 3.07702e-10 -3493.05 -226.327 3.54752e-10 -3642.76 -226.577 3.91751e-10 -3788.26 -246.237 4.23467e-10 -3930.34 -278.816 4.46183e-10 -4069.58 -319.744 4.66818e-10 -4206.38 -365.712 4.81025e-10 -4149.87 -342.341 5.15221e-10 -4092.42 -330.439 5.38322e-10 -4034.25 -328.252 5.60407e-10 -3975.52 -334.399 5.78169e-10 -3916.37 -347.777 5.95511e-10 -3856.9 -367.493 6.08413e-10 -3797.21 -392.818 6.20167e-10 -2940.66 -566.884 2.1389e-10 -3128.75 -570.533 2.753e-10 -3306.67 -598.087 3.23167e-10 -3476.52 -640.941 3.59853e-10 -3639.78 -693.238 3.89254e-10 -3797.48 -750.867 4.12158e-10 -3950.38 -810.871 4.32341e-10 -4099.03 -871.079 4.45999e-10 -4056.77 -844.049 4.76219e-10 -4012.96 -824.691 5.00579e-10 -3967.91 -811.718 5.19283e-10 -3921.86 -804.107 5.35672e-10 -3875.01 -801.028 5.51405e-10 -3827.53 -801.808 5.60885e-10 -3779.56 -805.889 5.69508e-10 -2716.06 -817.047 1.89806e-10 -2917.12 -877.249 2.50822e-10 -3106.8 -948.828 2.98635e-10 -3287.07 -1026.62 3.36132e-10 -3459.33 -1107.02 3.64685e-10 -3624.6 -1187.46 3.87486e-10 -3783.65 -1266.1 4.04656e-10 -3937.07 -1341.55 4.19016e-10 -3904.09 -1313.63 4.47033e-10 -3869.18 -1290.48 4.70839e-10 -3832.68 -1271.21 4.89358e-10 -3794.87 -1255.1 5.04623e-10 -3755.97 -1241.56 5.15919e-10 -3716.15 -1230.11 5.24345e-10 -3675.57 -1220.35 5.31352e-10 -2494.07 -1069.81 1.71507e-10 -2699.3 -1173.14 2.32659e-10 -2892.86 -1279.55 2.81427e-10 -3076.41 -1386.01 3.17725e-10 -3251.13 -1490.41 3.46787e-10 -3417.91 -1591.23 3.69078e-10 -3577.45 -1687.36 3.86958e-10 -3730.27 -1778.01 3.9994e-10 -3702.87 -1750.7 4.28736e-10 -3673.39 -1725.96 4.49817e-10 -3642.14 -1703.22 4.68072e-10 -3609.4 -1682.01 4.80983e-10 -3575.35 -1661.95 4.91024e-10 -3540.19 -1642.73 4.98037e-10 -3504.05 -1624.1 5.01858e-10 -2270.17 -1320.66 1.56557e-10 -2472.9 -1457.19 2.19037e-10 -2664.3 -1591.2 2.67686e-10 -2845.6 -1721.11 3.05574e-10 -3017.72 -1845.79 3.34794e-10 -3181.34 -1964.46 3.5729e-10 -3337.04 -2076.57 3.74776e-10 -3485.24 -2181.74 3.87124e-10 -3460.73 -2155.69 4.1661e-10 -3434.22 -2130.57 4.38502e-10 -3405.97 -2106.06 4.55918e-10 -3376.16 -2081.89 4.68891e-10 -3344.99 -2057.85 4.7813e-10 -3312.59 -2033.77 4.8416e-10 -3279.09 -2009.53 4.87486e-10 -2041.77 -1567.01 1.45005e-10 -2236.35 -1729 2.09121e-10 -2420.52 -1884.71 2.58957e-10 -2595.02 -2033.52 2.97774e-10 -2760.41 -2175.06 3.28034e-10 -2917.16 -2309.06 3.51056e-10 -3065.63 -2435.38 3.68715e-10 -3206.15 -2553.93 3.81275e-10 -3182.67 -2529.24 4.10893e-10 -3157.51 -2504.27 4.34574e-10 -3130.79 -2478.89 4.5203e-10 -3102.67 -2453 4.65155e-10 -3073.26 -2426.54 4.74541e-10 -3042.65 -2399.44 4.80045e-10 -3010.93 -2371.68 4.83027e-10 -1807.52 -1807.52 1.35782e-10 -1988.61 -1988.61 2.01932e-10 -2160.89 -2160.89 2.53657e-10 -2324.51 -2324.51 2.93988e-10 -2479.63 -2479.63 3.25387e-10 -2626.38 -2626.38 3.49359e-10 -2764.92 -2764.92 3.67662e-10 -2895.38 -2895.38 3.81022e-10 -2871.69 -2871.69 4.12656e-10 -2846.86 -2846.86 4.37317e-10 -2820.92 -2820.92 4.56191e-10 -2793.91 -2793.91 4.70138e-10 -2765.86 -2765.86 4.79903e-10 -2736.8 -2736.8 4.86161e-10 -2706.77 -2706.77 4.89334e-10 -1567.01 -2041.77 1.40366e-10 -1729 -2236.35 2.02193e-10 -1884.71 -2420.52 2.50412e-10 -2033.52 -2595.02 2.88367e-10 -2175.06 -2760.41 3.17224e-10 -2309.06 -2917.16 3.39775e-10 -2435.38 -3065.63 3.56757e-10 -2553.93 -3206.15 3.69267e-10 -2529.24 -3182.67 3.92914e-10 -2504.27 -3157.51 4.11148e-10 -2478.89 -3130.79 4.2509e-10 -2453 -3102.67 4.34511e-10 -2426.54 -3073.26 4.41022e-10 -2399.44 -3042.65 4.44734e-10 -2371.68 -3010.93 4.45836e-10 -1320.66 -2270.17 1.47338e-10 -1457.19 -2472.9 2.05825e-10 -1591.2 -2664.3 2.50838e-10 -1721.11 -2845.6 2.86124e-10 -1845.79 -3017.72 3.14027e-10 -1964.46 -3181.34 3.35118e-10 -2076.57 -3337.04 3.51105e-10 -2181.74 -3485.24 3.62412e-10 -2155.69 -3460.73 3.79073e-10 -2130.57 -3434.22 3.91178e-10 -2106.06 -3405.97 3.99754e-10 -2081.89 -3376.16 4.05469e-10 -2057.85 -3344.99 4.07886e-10 -2033.77 -3312.59 4.11262e-10 -2009.53 -3279.09 4.0955e-10 -1069.81 -2494.07 1.56519e-10 -1173.14 -2699.3 2.11475e-10 -1279.55 -2892.86 2.5403e-10 -1386.01 -3076.41 2.88544e-10 -1490.41 -3251.13 3.14749e-10 -1591.23 -3417.91 3.34532e-10 -1687.36 -3577.45 3.4987e-10 -1778.01 -3730.27 3.61533e-10 -1750.7 -3702.87 3.69844e-10 -1725.96 -3673.39 3.77322e-10 -1703.22 -3642.14 3.80328e-10 -1682.01 -3609.4 3.82698e-10 -1661.95 -3575.35 3.82966e-10 -1642.73 -3540.19 3.81664e-10 -1624.1 -3504.05 3.80045e-10 -817.047 -2716.06 1.69593e-10 -877.249 -2917.12 2.22678e-10 -948.828 -3106.8 2.62275e-10 -1026.62 -3287.07 2.94435e-10 -1107.02 -3459.33 3.20373e-10 -1187.46 -3624.6 3.40503e-10 -1266.1 -3783.65 3.5511e-10 -1341.55 -3937.07 3.65946e-10 -1313.63 -3904.09 3.66719e-10 -1290.48 -3869.18 3.66081e-10 -1271.21 -3832.68 3.64251e-10 -1255.1 -3794.87 3.61279e-10 -1241.56 -3755.97 3.58918e-10 -1230.11 -3716.15 3.55324e-10 -1220.35 -3675.57 3.50178e-10 -566.884 -2940.66 1.86065e-10 -570.533 -3128.75 2.35796e-10 -598.087 -3306.67 2.74708e-10 -640.941 -3476.52 3.05107e-10 -693.238 -3639.78 3.29398e-10 -750.867 -3797.48 3.48701e-10 -810.871 -3950.38 3.62775e-10 -871.079 -4099.03 3.73952e-10 -844.049 -4056.77 3.66341e-10 -824.691 -4012.96 3.58265e-10 -811.718 -3967.91 3.51809e-10 -804.107 -3921.86 3.42962e-10 -801.028 -3875.01 3.36983e-10 -801.808 -3827.53 3.28914e-10 -805.889 -3779.56 3.23259e-10 -327.131 -3175.66 2.09462e-10 -255.005 -3337.94 2.5516e-10 -226.327 -3493.05 2.92181e-10 -226.577 -3642.76 3.20068e-10 -246.237 -3788.26 3.41699e-10 -278.816 -3930.34 3.60311e-10 -319.744 -4069.58 3.75163e-10 -365.712 -4206.38 3.86712e-10 -342.341 -4149.87 3.69498e-10 -330.439 -4092.42 3.5239e-10 -328.252 -4034.25 3.35844e-10 -334.399 -3975.52 3.23517e-10 -347.777 -3916.37 3.10021e-10 -367.493 -3856.9 3.00502e-10 -392.818 -3797.21 2.89418e-10 -112.005 -3435.28 2.42835e-10 65.4879 -3550.95 2.8496e-10 167.449 -3666.62 3.175e-10 219.46 -3782.29 3.43841e-10 237.36 -3897.96 3.6502e-10 231.483 -4013.63 3.82499e-10 208.86 -4129.3 3.97137e-10 174.437 -4244.97 4.07639e-10 189.444 -4167.71 3.76588e-10 188.04 -4090.44 3.48383e-10 172.539 -4013.18 3.24235e-10 144.723 -3935.92 3.01736e-10 105.989 -3858.66 2.81176e-10 57.4504 -3781.4 2.63356e-10 -2.33006e-13 -3704.13 2.47297e-10 -3647.43 -118.921 1.64619e-10 -3770.24 69.532 2.96236e-10 -3893.05 177.79 3.9671e-10 -4015.86 233.012 4.77293e-10 -4138.67 252.017 5.41775e-10 -4261.49 245.778 5.93616e-10 -4384.3 221.758 6.38011e-10 -4507.11 185.209 6.78043e-10 -4425.08 201.142 7.18899e-10 -4343.04 199.653 7.53154e-10 -4261.01 183.194 7.84453e-10 -4178.98 153.66 8.13673e-10 -4096.94 112.535 8.39739e-10 -4014.91 60.9982 8.61655e-10 -3932.88 2.47395e-13 8.81993e-10 -3371.77 -347.333 1.55608e-10 -3544.07 -270.752 2.79645e-10 -3708.76 -240.303 3.7505e-10 -3867.72 -240.569 4.51334e-10 -4022.2 -261.443 5.12324e-10 -4173.05 -296.034 5.61447e-10 -4320.89 -339.489 6.04161e-10 -4466.14 -388.296 6.35747e-10 -4406.14 -363.481 6.76287e-10 -4345.14 -350.845 7.0983e-10 -4283.38 -348.523 7.39411e-10 -4221.02 -355.05 7.62367e-10 -4158.22 -369.253 7.83254e-10 -4095.08 -390.187 8.03855e-10 -4031.7 -417.076 8.1573e-10 -3122.25 -601.891 1.5141e-10 -3321.97 -605.765 2.68464e-10 -3510.87 -635.022 3.6006e-10 -3691.21 -680.522 4.32286e-10 -3864.55 -736.048 4.90081e-10 -4031.99 -797.236 5.36154e-10 -4194.33 -860.945 5.74391e-10 -4352.16 -924.871 6.06288e-10 -4307.3 -896.173 6.44938e-10 -4260.78 -875.619 6.76785e-10 -4212.94 -861.845 7.01497e-10 -4164.05 -853.763 7.24061e-10 -4114.31 -850.495 7.42521e-10 -4063.9 -851.323 7.56394e-10 -4012.96 -855.656 7.67072e-10 -2883.79 -867.503 1.50491e-10 -3097.27 -931.422 2.62918e-10 -3298.66 -1007.42 3.52222e-10 -3490.05 -1090.01 4.21846e-10 -3672.95 -1175.38 4.7648e-10 -3848.43 -1260.79 5.21389e-10 -4017.31 -1344.28 5.56176e-10 -4180.2 -1424.4 5.85784e-10 -4145.18 -1394.75 6.24212e-10 -4108.12 -1370.18 6.54101e-10 -4069.37 -1349.72 6.77196e-10 -4029.22 -1332.61 6.97659e-10 -3987.91 -1318.23 7.1353e-10 -3945.64 -1306.07 7.23138e-10 -3902.55 -1295.72 7.3189e-10 -2648.09 -1135.87 1.51042e-10 -2865.99 -1245.58 2.61562e-10 -3071.51 -1358.56 3.48644e-10 -3266.39 -1471.61 4.16407e-10 -3451.9 -1582.45 4.70883e-10 -3628.98 -1689.49 5.13168e-10 -3798.37 -1791.56 5.46798e-10 -3960.63 -1887.81 5.72577e-10 -3931.53 -1858.81 6.10407e-10 -3900.23 -1832.55 6.39937e-10 -3867.06 -1808.4 6.64533e-10 -3832.29 -1785.88 6.81567e-10 -3796.14 -1764.59 6.95744e-10 -3758.81 -1744.18 7.04387e-10 -3720.44 -1724.4 7.0911e-10 -2410.36 -1402.21 1.53411e-10 -2625.61 -1547.17 2.6311e-10 -2828.83 -1689.47 3.49747e-10 -3021.33 -1827.4 4.17355e-10 -3204.07 -1959.78 4.7107e-10 -3377.8 -2085.78 5.12384e-10 -3543.11 -2204.81 5.44666e-10 -3700.46 -2316.47 5.69677e-10 -3674.44 -2288.81 6.08448e-10 -3646.3 -2262.15 6.3843e-10 -3616.3 -2236.12 6.61498e-10 -3584.66 -2210.46 6.78295e-10 -3551.56 -2184.93 6.90088e-10 -3517.16 -2159.37 6.97537e-10 -3481.59 -2133.62 7.0176e-10 -2167.85 -1663.78 1.58246e-10 -2374.45 -1835.77 2.68647e-10 -2570 -2001.09 3.55323e-10 -2755.27 -2159.1 4.23249e-10 -2930.88 -2309.38 4.7676e-10 -3097.31 -2451.65 5.1774e-10 -3254.95 -2585.77 5.49884e-10 -3404.14 -2711.65 5.73873e-10 -3379.22 -2685.43 6.14677e-10 -3352.49 -2658.91 6.46058e-10 -3324.13 -2631.97 6.69536e-10 -3294.28 -2604.48 6.86822e-10 -3263.05 -2576.39 6.98129e-10 -3230.54 -2547.62 7.05343e-10 -3196.86 -2518.14 7.08711e-10 -1919.14 -1919.14 1.65018e-10 -2111.41 -2111.41 2.773e-10 -2294.33 -2294.33 3.65458e-10 -2468.06 -2468.06 4.34735e-10 -2632.76 -2632.76 4.88808e-10 -2788.57 -2788.57 5.30679e-10 -2935.66 -2935.66 5.62744e-10 -3074.18 -3074.18 5.86751e-10 -3049.03 -3049.03 6.29965e-10 -3022.66 -3022.66 6.6355e-10 -2995.12 -2995.12 6.88904e-10 -2966.44 -2966.44 7.07244e-10 -2936.66 -2936.66 7.19662e-10 -2905.81 -2905.81 7.27146e-10 -2873.92 -2873.92 7.30369e-10 -1663.78 -2167.85 1.70094e-10 -1835.77 -2374.45 2.74932e-10 -2001.09 -2570 3.56817e-10 -2159.1 -2755.27 4.21386e-10 -2309.38 -2930.88 4.7125e-10 -2451.65 -3097.31 5.10705e-10 -2585.77 -3254.95 5.40014e-10 -2711.65 -3404.14 5.62533e-10 -2685.43 -3379.22 5.95257e-10 -2658.91 -3352.49 6.20068e-10 -2631.97 -3324.13 6.38093e-10 -2604.48 -3294.28 6.50541e-10 -2576.39 -3263.05 6.58906e-10 -2547.62 -3230.54 6.63037e-10 -2518.14 -3196.86 6.63384e-10 -1402.21 -2410.36 1.77636e-10 -1547.17 -2625.61 2.76148e-10 -1689.47 -2828.83 3.5275e-10 -1827.4 -3021.33 4.12658e-10 -1959.78 -3204.07 4.60191e-10 -2085.78 -3377.8 4.9657e-10 -2204.81 -3543.11 5.25048e-10 -2316.47 -3700.46 5.45397e-10 -2288.81 -3674.44 5.68474e-10 -2262.15 -3646.3 5.85539e-10 -2236.12 -3616.3 5.97079e-10 -2210.46 -3584.66 6.04312e-10 -2184.93 -3551.56 6.08424e-10 -2159.37 -3517.16 6.09904e-10 -2133.62 -3481.59 6.07907e-10 -1135.87 -2648.09 1.87887e-10 -1245.58 -2865.99 2.80494e-10 -1358.56 -3071.51 3.52607e-10 -1471.61 -3266.39 4.09985e-10 -1582.45 -3451.9 4.5458e-10 -1689.49 -3628.98 4.89769e-10 -1791.56 -3798.37 5.16882e-10 -1887.81 -3960.63 5.37524e-10 -1858.81 -3931.53 5.50314e-10 -1832.55 -3900.23 5.59284e-10 -1808.4 -3867.06 5.63315e-10 -1785.88 -3832.29 5.67101e-10 -1764.59 -3796.14 5.65836e-10 -1744.18 -3758.81 5.64135e-10 -1724.4 -3720.44 5.61258e-10 -867.503 -2883.79 2.0259e-10 -931.422 -3097.27 2.90234e-10 -1007.42 -3298.66 3.58312e-10 -1090.01 -3490.05 4.11872e-10 -1175.38 -3672.95 4.56194e-10 -1260.79 -3848.43 4.88539e-10 -1344.28 -4017.31 5.15501e-10 -1424.4 -4180.2 5.35184e-10 -1394.75 -4145.18 5.35326e-10 -1370.18 -4108.12 5.35858e-10 -1349.72 -4069.37 5.34472e-10 -1332.61 -4029.22 5.31092e-10 -1318.23 -3987.91 5.25804e-10 -1306.07 -3945.64 5.2207e-10 -1295.72 -3902.55 5.15368e-10 -601.891 -3122.25 2.22315e-10 -605.765 -3321.97 3.04886e-10 -635.022 -3510.87 3.69715e-10 -680.522 -3691.21 4.20766e-10 -736.048 -3864.55 4.62037e-10 -797.236 -4031.99 4.9381e-10 -860.945 -4194.33 5.19497e-10 -924.871 -4352.16 5.39594e-10 -896.173 -4307.3 5.29227e-10 -875.619 -4260.78 5.19417e-10 -861.845 -4212.94 5.09325e-10 -853.763 -4164.05 4.99454e-10 -850.495 -4114.31 4.89118e-10 -851.323 -4063.9 4.80091e-10 -855.656 -4012.96 4.71999e-10 -347.333 -3371.77 2.49242e-10 -270.752 -3544.07 3.26524e-10 -240.303 -3708.76 3.87128e-10 -240.569 -3867.72 4.34274e-10 -261.443 -4022.2 4.71995e-10 -296.034 -4173.05 5.04331e-10 -339.489 -4320.89 5.27527e-10 -388.296 -4466.14 5.49731e-10 -363.481 -4406.14 5.25667e-10 -350.845 -4345.14 5.01666e-10 -348.523 -4283.38 4.80416e-10 -355.05 -4221.02 4.63813e-10 -369.253 -4158.22 4.47183e-10 -390.187 -4095.08 4.31197e-10 -417.076 -4031.7 4.18848e-10 -118.921 -3647.43 2.8831e-10 69.532 -3770.24 3.59808e-10 177.79 -3893.05 4.15326e-10 233.012 -4015.86 4.57469e-10 252.017 -4138.67 4.92918e-10 245.778 -4261.49 5.23244e-10 221.758 -4384.3 5.47743e-10 185.209 -4507.11 5.66998e-10 201.142 -4425.08 5.23442e-10 199.653 -4343.04 4.87013e-10 183.194 -4261.01 4.53909e-10 153.66 -4178.98 4.22899e-10 112.535 -4096.94 3.95184e-10 60.9982 -4014.91 3.71961e-10 -7.42185e-13 -3932.88 3.51054e-10 -3824.86 -124.707 4.46736e-10 -3953.65 72.9145 5.52916e-10 -4082.44 186.439 6.34603e-10 -4211.22 244.347 6.9802e-10 -4340.01 264.277 7.49116e-10 -4468.79 257.735 7.91559e-10 -4597.58 232.546 8.29428e-10 -4726.37 194.219 8.58436e-10 -4640.34 210.927 8.98039e-10 -4554.32 209.365 9.29217e-10 -4468.3 192.106 9.56627e-10 -4382.27 161.135 9.85072e-10 -4296.25 118.009 1.00773e-09 -4210.22 63.9656 1.03039e-09 -4124.2 2.5943e-13 1.04669e-09 -3535.79 -364.23 3.90448e-10 -3716.48 -283.923 4.99111e-10 -3889.18 -251.993 5.83355e-10 -4055.87 -252.272 6.49729e-10 -4217.87 -274.161 7.03903e-10 -4376.06 -310.435 7.4517e-10 -4531.09 -356.004 7.78872e-10 -4683.41 -407.185 8.07637e-10 -4620.49 -381.164 8.5148e-10 -4556.52 -367.913 8.83216e-10 -4491.75 -365.478 9.11117e-10 -4426.36 -372.322 9.3245e-10 -4360.51 -387.216 9.55169e-10 -4294.3 -409.168 9.70898e-10 -4227.83 -437.365 9.84208e-10 -3274.14 -631.171 3.51378e-10 -3483.57 -635.234 4.62442e-10 -3681.66 -665.914 5.47413e-10 -3870.78 -713.627 6.1509e-10 -4052.55 -771.855 6.68645e-10 -4228.14 -836.019 7.1208e-10 -4398.37 -902.828 7.47297e-10 -4563.88 -969.864 7.73317e-10 -4516.83 -939.769 8.13475e-10 -4468.05 -918.215 8.48821e-10 -4417.89 -903.771 8.74841e-10 -4366.61 -895.296 8.96982e-10 -4314.46 -891.869 9.17096e-10 -4261.59 -892.737 9.29907e-10 -4208.18 -897.281 9.41572e-10 -3024.08 -909.704 3.22724e-10 -3247.94 -976.733 4.35716e-10 -3459.13 -1056.43 5.24e-10 -3659.84 -1143.04 5.92443e-10 -3851.63 -1232.56 6.46645e-10 -4035.65 -1322.13 6.89117e-10 -4212.74 -1409.68 7.22714e-10 -4383.55 -1493.69 7.49018e-10 -4346.83 -1462.6 7.92698e-10 -4307.96 -1436.83 8.24647e-10 -4267.33 -1415.38 8.53129e-10 -4225.23 -1397.43 8.74786e-10 -4181.91 -1382.35 8.9049e-10 -4137.58 -1369.61 9.01813e-10 -4092.4 -1358.75 9.10361e-10 -2776.91 -1191.13 3.02404e-10 -3005.41 -1306.17 4.18207e-10 -3220.93 -1424.65 5.0793e-10 -3425.29 -1543.2 5.78447e-10 -3619.82 -1659.43 6.33308e-10 -3805.52 -1771.68 6.76247e-10 -3983.15 -1878.71 7.08411e-10 -4153.31 -1979.65 7.3447e-10 -4122.79 -1949.24 7.784e-10 -4089.97 -1921.7 8.14711e-10 -4055.18 -1896.38 8.41186e-10 -4018.72 -1872.76 8.60906e-10 -3980.82 -1850.43 8.76291e-10 -3941.66 -1829.03 8.85268e-10 -3901.42 -1808.29 8.90809e-10 -2527.61 -1470.43 2.87894e-10 -2753.33 -1622.44 4.07448e-10 -2966.44 -1771.65 5.00819e-10 -3168.31 -1916.3 5.73016e-10 -3359.94 -2055.12 6.29496e-10 -3542.12 -2187.24 6.73286e-10 -3715.47 -2312.06 7.06178e-10 -3880.48 -2429.16 7.31016e-10 -3853.19 -2400.16 7.79045e-10 -3823.68 -2372.19 8.16508e-10 -3792.22 -2344.9 8.44722e-10 -3759.04 -2317.99 8.64667e-10 -3724.33 -2291.22 8.79003e-10 -3688.25 -2264.41 8.88804e-10 -3650.95 -2237.42 8.92758e-10 -2273.31 -1744.72 2.78054e-10 -2489.96 -1925.08 4.02733e-10 -2695.02 -2098.44 4.99883e-10 -2889.31 -2264.13 5.75643e-10 -3073.46 -2421.72 6.34434e-10 -3247.98 -2570.92 6.7941e-10 -3413.29 -2711.56 7.13837e-10 -3569.74 -2843.56 7.38704e-10 -3543.61 -2816.07 7.90461e-10 -3515.58 -2788.26 8.30311e-10 -3485.84 -2760 8.60515e-10 -3454.53 -2731.19 8.82083e-10 -3421.78 -2701.72 8.97214e-10 -3387.7 -2671.55 9.05936e-10 -3352.38 -2640.63 9.09577e-10 -2012.5 -2012.5 2.72237e-10 -2214.12 -2214.12 4.03223e-10 -2405.94 -2405.94 5.0552e-10 -2588.13 -2588.13 5.85315e-10 -2760.83 -2760.83 6.47176e-10 -2924.23 -2924.23 6.94838e-10 -3078.47 -3078.47 7.30717e-10 -3223.73 -3223.73 7.57168e-10 -3197.35 -3197.35 8.13937e-10 -3169.7 -3169.7 8.57855e-10 -3140.83 -3140.83 8.91139e-10 -3110.75 -3110.75 9.15312e-10 -3079.52 -3079.52 9.31818e-10 -3047.17 -3047.17 9.41809e-10 -3013.73 -3013.73 9.46256e-10 -1744.72 -2273.31 2.68083e-10 -1925.08 -2489.96 3.89034e-10 -2098.44 -2695.02 4.83408e-10 -2264.13 -2889.31 5.56941e-10 -2421.72 -3073.46 6.13989e-10 -2570.92 -3247.98 6.57896e-10 -2711.56 -3413.29 6.91014e-10 -2843.56 -3569.74 7.15333e-10 -2816.07 -3543.61 7.60631e-10 -2788.26 -3515.58 7.96229e-10 -2760 -3485.84 8.22299e-10 -2731.19 -3454.53 8.41119e-10 -2701.72 -3421.78 8.53563e-10 -2671.55 -3387.7 8.59913e-10 -2640.63 -3352.38 8.62232e-10 -1470.43 -2527.61 2.67915e-10 -1622.44 -2753.33 3.80119e-10 -1771.65 -2966.44 4.67182e-10 -1916.3 -3168.31 5.35966e-10 -2055.12 -3359.94 5.89015e-10 -2187.24 -3542.12 6.29711e-10 -2312.06 -3715.47 6.60838e-10 -2429.16 -3880.48 6.83915e-10 -2400.16 -3853.19 7.18471e-10 -2372.19 -3823.68 7.46669e-10 -2344.9 -3792.22 7.65599e-10 -2317.99 -3759.04 7.79003e-10 -2291.22 -3724.33 7.87594e-10 -2264.41 -3688.25 7.92544e-10 -2237.42 -3650.95 7.92555e-10 -1191.13 -2776.91 2.71379e-10 -1306.17 -3005.41 3.75509e-10 -1424.65 -3220.93 4.57197e-10 -1543.2 -3425.29 5.20367e-10 -1659.43 -3619.82 5.69993e-10 -1771.68 -3805.52 6.08225e-10 -1878.71 -3983.15 6.3763e-10 -1979.65 -4153.31 6.5916e-10 -1949.24 -4122.79 6.8579e-10 -1921.7 -4089.97 7.03957e-10 -1896.38 -4055.18 7.17721e-10 -1872.76 -4018.72 7.28448e-10 -1850.43 -3980.82 7.3254e-10 -1829.03 -3941.66 7.34756e-10 -1808.29 -3901.42 7.34276e-10 -909.704 -3024.08 2.794e-10 -976.733 -3247.94 3.76778e-10 -1056.43 -3459.13 4.51194e-10 -1143.04 -3659.84 5.10475e-10 -1232.56 -3851.63 5.56277e-10 -1322.13 -4035.65 5.92896e-10 -1409.68 -4212.74 6.20304e-10 -1493.69 -4383.55 6.42236e-10 -1462.6 -4346.83 6.56532e-10 -1436.83 -4307.96 6.69604e-10 -1415.38 -4267.33 6.74806e-10 -1397.43 -4225.23 6.78761e-10 -1382.35 -4181.91 6.80991e-10 -1369.61 -4137.58 6.80884e-10 -1358.75 -4092.4 6.79301e-10 -631.171 -3274.14 2.92924e-10 -635.234 -3483.57 3.82372e-10 -665.914 -3681.66 4.52008e-10 -713.627 -3870.78 5.05734e-10 -771.855 -4052.55 5.484e-10 -836.019 -4228.14 5.82185e-10 -902.828 -4398.37 6.10747e-10 -969.864 -4563.88 6.29523e-10 -939.769 -4516.83 6.3653e-10 -918.215 -4468.05 6.36393e-10 -903.771 -4417.89 6.36215e-10 -895.296 -4366.61 6.33748e-10 -891.869 -4314.46 6.31577e-10 -892.737 -4261.59 6.29695e-10 -897.281 -4208.18 6.25724e-10 -364.23 -3535.79 3.13925e-10 -283.923 -3716.48 3.94966e-10 -251.993 -3889.18 4.58137e-10 -252.272 -4055.87 5.06736e-10 -274.161 -4217.87 5.46131e-10 -310.435 -4376.06 5.7963e-10 -356.004 -4531.09 6.05267e-10 -407.185 -4683.41 6.25901e-10 -381.164 -4620.49 6.14984e-10 -367.913 -4556.52 6.0373e-10 -365.478 -4491.75 5.94396e-10 -372.322 -4426.36 5.88437e-10 -387.216 -4360.51 5.77316e-10 -409.168 -4294.3 5.71769e-10 -437.365 -4227.83 5.64103e-10 -124.707 -3824.86 3.47374e-10 72.9145 -3953.65 4.18611e-10 186.439 -4082.44 4.72027e-10 244.347 -4211.22 5.15175e-10 264.277 -4340.01 5.51041e-10 257.735 -4468.79 5.79936e-10 232.546 -4597.58 6.02518e-10 194.219 -4726.37 6.24405e-10 210.927 -4640.34 5.94191e-10 209.365 -4554.32 5.71052e-10 192.106 -4468.3 5.50701e-10 161.135 -4382.27 5.28621e-10 118.009 -4296.25 5.11682e-10 63.9656 -4210.22 4.93914e-10 -1.03772e-12 -4124.2 4.82333e-10 -3934.64 -128.286 6.61402e-10 -4067.12 75.0072 7.49893e-10 -4199.6 191.79 8.18312e-10 -4332.09 251.36 8.70591e-10 -4464.57 271.862 9.14966e-10 -4597.05 265.132 9.50594e-10 -4729.53 239.22 9.80736e-10 -4862.02 199.794 1.00708e-09 -4773.52 216.981 1.0369e-09 -4685.03 215.374 1.06777e-09 -4596.54 197.619 1.09469e-09 -4508.04 165.76 1.11749e-09 -4419.55 121.396 1.13623e-09 -4331.06 65.8014 1.15905e-09 -4242.57 2.66876e-13 1.17305e-09 -3637.27 -374.683 5.70294e-10 -3823.15 -292.072 6.69875e-10 -4000.8 -259.226 7.46151e-10 -4172.27 -259.512 8.04591e-10 -4338.92 -282.03 8.53146e-10 -4501.66 -319.345 8.9254e-10 -4661.13 -366.222 9.23058e-10 -4817.82 -418.872 9.4798e-10 -4753.1 -392.103 9.87292e-10 -4687.3 -378.472 1.0194e-09 -4620.67 -375.967 1.04598e-09 -4553.4 -383.007 1.0685e-09 -4485.65 -398.329 1.08881e-09 -4417.54 -420.911 1.1032e-09 -4349.17 -449.918 1.11714e-09 -3368.11 -649.286 5.06527e-10 -3583.55 -653.465 6.1342e-10 -3787.32 -685.026 6.95797e-10 -3981.87 -734.109 7.61409e-10 -4168.86 -794.007 8.10916e-10 -4349.49 -860.013 8.51847e-10 -4524.6 -928.739 8.82104e-10 -4694.86 -997.699 9.0628e-10 -4646.47 -966.74 9.47771e-10 -4596.29 -944.568 9.83715e-10 -4544.68 -929.71 1.01139e-09 -4491.94 -920.992 1.03193e-09 -4438.28 -917.466 1.05077e-09 -4383.9 -918.359 1.06516e-09 -4328.96 -923.033 1.07394e-09 -3110.87 -935.813 4.59818e-10 -3341.16 -1004.77 5.72402e-10 -3558.4 -1086.75 6.61411e-10 -3764.87 -1175.85 7.28608e-10 -3962.17 -1267.93 7.82018e-10 -4151.47 -1360.07 8.22476e-10 -4333.65 -1450.14 8.53094e-10 -4509.36 -1536.56 8.77605e-10 -4471.58 -1504.58 9.24538e-10 -4431.6 -1478.07 9.60182e-10 -4389.8 -1456 9.88813e-10 -4346.5 -1437.54 1.01208e-09 -4301.93 -1422.03 1.02687e-09 -4256.33 -1408.91 1.03948e-09 -4209.85 -1397.74 1.04664e-09 -2856.61 -1225.31 4.25371e-10 -3091.67 -1343.66 5.4482e-10 -3313.37 -1465.54 6.37355e-10 -3523.59 -1587.49 7.09884e-10 -3723.71 -1707.06 7.65107e-10 -3914.74 -1822.53 8.07511e-10 -4097.47 -1932.63 8.40073e-10 -4272.51 -2036.46 8.63564e-10 -4241.11 -2005.18 9.12876e-10 -4207.35 -1976.85 9.52718e-10 -4171.57 -1950.8 9.81607e-10 -4134.06 -1926.51 1.00443e-09 -4095.07 -1903.53 1.02006e-09 -4054.79 -1881.52 1.03049e-09 -4013.4 -1860.18 1.03625e-09 -2600.16 -1512.63 3.99378e-10 -2832.36 -1669 5.25452e-10 -3051.58 -1822.5 6.23724e-10 -3259.24 -1971.29 7.00095e-10 -3456.37 -2114.1 7.58221e-10 -3643.78 -2250.02 8.03111e-10 -3822.11 -2378.42 8.36476e-10 -3991.85 -2498.87 8.61074e-10 -3963.78 -2469.04 9.1454e-10 -3933.42 -2440.27 9.57169e-10 -3901.06 -2412.2 9.89064e-10 -3866.92 -2384.51 1.01279e-09 -3831.22 -2356.98 1.0278e-09 -3794.11 -2329.4 1.03786e-09 -3755.74 -2301.63 1.04189e-09 -2338.56 -1794.79 3.80375e-10 -2561.42 -1980.33 5.14715e-10 -2772.37 -2158.67 6.19167e-10 -2972.23 -2329.12 7.00183e-10 -3161.67 -2491.22 7.62299e-10 -3341.2 -2644.7 8.09746e-10 -3511.25 -2789.38 8.45146e-10 -3672.19 -2925.17 8.70544e-10 -3645.31 -2896.89 9.31013e-10 -3616.48 -2868.29 9.76896e-10 -3585.89 -2839.22 1.01136e-09 -3553.68 -2809.57 1.03689e-09 -3519.99 -2779.26 1.05342e-09 -3484.93 -2748.23 1.0629e-09 -3448.6 -2716.42 1.06749e-09 -2070.26 -2070.26 3.67005e-10 -2277.67 -22