<?xml version="1.0"?> 
<VTKFile type="StructuredGrid" version="0.1"> 
<StructuredGrid WholeExtent="0 29 0 29 0 29"> 
<Piece Extent="0 29 0 29 0 29"> 
<PointData>
<DataArray type="Float32" Name="hfield" format="ascii" NumberOfComponents="3"> 
100.163 -6.70752e-12 1.39835e-11 97.1596 3.90439 1.8952e-11 94.124 7.7766 2.40306e-11 91.0562 11.6166 2.91678e-11 87.9563 15.4245 3.42908e-11 84.8242 19.2002 3.93356e-11 81.6599 22.9437 4.43947e-11 78.4634 26.655 4.95035e-11 75.2348 30.3341 5.45697e-11 71.9739 33.9811 5.9643e-11 68.6809 37.5959 6.47731e-11 65.3557 41.1785 6.98179e-11 61.9984 44.7289 7.48912e-11 58.6088 48.2472 7.99787e-11 55.1871 51.7332 8.50804e-11 51.7332 55.1871 9.05676e-11 48.2472 58.6088 9.65166e-11 44.7289 61.9984 1.02453e-10 41.1785 65.3557 1.08408e-10 37.5959 68.6809 1.14326e-10 33.9811 71.9739 1.20266e-10 30.3341 75.2348 1.26235e-10 26.655 78.4634 1.32161e-10 22.9437 81.6599 1.38073e-10 19.2002 84.8242 1.44013e-10 15.4245 87.9563 1.5001e-10 11.6166 91.0562 1.5595e-10 7.7766 94.124 1.61805e-10 3.90439 97.1596 1.67773e-10 9.24274e-11 100.163 1.73742e-10 97.1596 -3.90439 8.11046e-12 94.094 -7.93943e-12 1.32317e-11 90.9985 3.87443 1.83245e-11 87.8731 7.7189 2.3467e-11 84.7177 11.5334 2.86593e-11 81.5323 15.318 3.36917e-11 78.3169 19.0726 3.88733e-11 75.0717 22.7972 4.39625e-11 71.7964 26.4919 4.90802e-11 68.4912 30.1566 5.41979e-11 65.156 33.7913 5.93298e-11 61.7909 37.3961 6.44616e-11 58.3958 40.971 6.95793e-11 54.9708 44.5159 7.4697e-11 51.5158 48.0308 7.98004e-11 48.0308 51.5158 8.53359e-11 44.5159 54.9708 9.11951e-11 40.971 58.3958 9.71341e-11 37.3961 61.7909 1.03034e-10 33.7913 65.156 1.08948e-10 30.1566 68.4912 1.14841e-10 26.4919 71.7964 1.2072e-10 22.7972 75.0717 1.26655e-10 19.0726 78.3169 1.32534e-10 15.318 81.5323 1.38441e-10 11.5334 84.7177 1.4432e-10 7.7189 87.8731 1.50284e-10 3.87443 90.9985 1.56134e-10 9.587e-11 94.094 1.62041e-10 -3.90439 97.1596 1.67977e-10 94.124 -7.7766 2.40796e-12 90.9985 -3.87443 7.50962e-12 87.8453 -9.10561e-12 1.26628e-11 84.6644 3.84669 1.7848e-11 81.4557 7.66564 2.29851e-11 78.2193 11.4569 2.81756e-11 74.9551 15.2203 3.32808e-11 71.6633 18.9561 3.84571e-11 68.3436 22.664 4.36263e-11 64.9962 26.3443 4.87954e-11 61.6211 29.9968 5.39291e-11 58.2183 33.6216 5.91054e-11 54.7877 37.2186 6.42532e-11 51.3293 40.7879 6.94153e-11 47.8433 44.3295 7.45631e-11 44.3295 47.8433 8.00723e-11 40.7879 51.3293 8.59517e-11 37.2186 54.7877 9.1808e-11 33.6216 58.2183 9.76608e-11 29.9968 61.6211 1.03556e-10 26.3443 64.9962 1.09373e-10 22.664 68.3436 1.15276e-10 18.9561 71.6633 1.21107e-10 15.2203 74.9551 1.26939e-10 11.4569 78.2193 1.32784e-10 7.66564 81.4557 1.38715e-10 3.84669 84.6644 1.44561e-10 9.92415e-11 87.8453 1.50407e-10 -3.87443 90.9985 1.56281e-10 -7.7766 94.124 1.62098e-10 91.0562 -11.6166 -3.40822e-12 87.8731 -7.7189 1.81688e-12 84.6644 -3.84669 6.95317e-12 81.4302 -1.00613e-11 1.21472e-11 78.1705 3.82117 1.73892e-11 74.8852 7.61682 2.2553e-11 71.5745 11.3869 2.77523e-11 68.2382 15.1316 3.29233e-11 64.8764 18.8506 3.81652e-11 61.4891 22.5442 4.33504e-11 58.0762 26.2123 4.85284e-11 54.6379 29.8548 5.37491e-11 51.174 33.4718 5.89413e-11 47.6846 37.0633 6.41335e-11 44.1697 40.6292 6.93258e-11 40.6292 44.1697 7.48415e-11 37.0633 47.6846 8.06622e-11 33.4718 51.174 8.64819e-11 29.8548 54.6379 9.23158e-11 26.2123 58.0762 9.81498e-11 22.5442 61.4891 1.03948e-10 18.8506 64.8764 1.09761e-10 15.1316 68.2382 1.15602e-10 11.3869 71.5745 1.21415e-10 7.61682 74.8852 1.27241e-10 3.82117 78.1705 1.33111e-10 1.02276e-10 81.4302 1.38867e-10 -3.84669 84.6644 1.44708e-10 -7.7189 87.8731 1.5052e-10 -11.6166 91.0562 1.56361e-10 87.9563 -15.4245 -9.2244e-12 84.7177 -11.5334 -3.9931e-12 81.4557 -7.66564 1.23643e-12 78.1705 -3.82117 6.49971e-12 74.8619 -1.08074e-11 1.17257e-11 71.5301 3.79787 1.69588e-11 68.175 7.57243 2.21883e-11 64.7965 11.3237 2.74391e-11 61.3948 15.0517 3.26545e-11 57.9697 18.7563 3.79053e-11 54.5214 22.4377 4.31419e-11 51.0497 26.0957 4.83786e-11 47.5548 29.7305 5.36152e-11 44.0365 33.342 5.88376e-11 40.495 36.9301 6.40885e-11 36.9301 40.495 6.96046e-11 33.342 44.0365 7.53868e-11 29.7305 47.5548 8.11842e-11 26.0957 51.0497 8.69354e-11 22.4377 54.5214 9.27363e-11 18.7563 57.9697 9.8523e-11 15.0517 61.3948 1.04317e-10 11.3237 64.7965 1.10068e-10 7.57243 68.175 1.15876e-10 3.79787 71.5301 1.21656e-10 1.05061e-10 74.8619 1.27449e-10 -3.82117 78.1705 1.33229e-10 -7.66564 81.4557 1.3898e-10 -11.5334 84.7177 1.44788e-10 -15.4245 87.9563 1.50625e-10 84.8242 -19.2002 -1.49837e-11 81.5323 -15.318 -9.68318e-12 78.2193 -11.4569 -4.44123e-12 74.8852 -7.61682 8.41571e-13 71.5301 -3.79787 6.13325e-12 68.1539 -1.14753e-11 1.13716e-11 64.7566 3.77679 1.6674e-11 61.3382 7.53249 2.19195e-11 57.8987 11.2671 2.72147e-11 54.4382 14.9806 3.24602e-11 50.9565 18.6731 3.77484e-11 47.4538 22.3445 4.30223e-11 43.93 25.9948 4.83033e-11 40.3851 29.624 5.35701e-11 36.8192 33.2321 5.88085e-11 33.2321 36.8192 6.43312e-11 29.624 40.3851 7.0108e-11 25.9948 43.93 7.58439e-11 22.3445 47.4538 8.15762e-11 18.6731 50.9565 8.73228e-11 14.9806 54.4382 9.30836e-11 11.2671 57.8987 9.88017e-11 7.53249 61.3382 1.04577e-10 3.77679 64.7566 1.10281e-10 1.07633e-10 68.1539 1.16056e-10 -3.79787 71.5301 1.21802e-10 -7.61682 74.8852 1.27535e-10 -11.4569 78.2193 1.3331e-10 -15.318 81.5323 1.39028e-10 -19.2002 84.8242 1.44774e-10 81.6599 -22.9437 -2.07999e-11 78.3169 -19.0726 -1.5463e-11 74.9551 -15.2203 -1.01562e-11 71.5745 -11.3869 -4.84676e-12 68.175 -7.57243 4.94641e-13 64.7566 -3.77679 5.78098e-12 61.3193 -1.18945e-11 1.11028e-11 57.8632 3.75792 1.64212e-11 54.3882 7.49698 2.17253e-11 50.8944 11.2172 2.70365e-11 47.3817 14.9185 3.23406e-11 43.8501 18.601 3.7666e-11 40.2997 22.2646 4.29843e-11 36.7304 25.9093 4.82884e-11 33.1422 29.5352 5.35996e-11 29.5352 33.1422 5.91111e-11 25.9093 36.7304 6.48131e-11 22.2646 40.2997 7.05e-11 18.601 43.8501 7.62313e-11 14.9185 47.3817 8.19377e-11 11.2172 50.8944 8.7637e-11 7.49698 54.3882 9.33435e-11 3.75792 57.8632 9.9057e-11 1.09878e-10 61.3193 1.04756e-10 -3.77679 64.7566 1.1047e-10 -7.57243 68.175 1.16169e-10 -11.3869 71.5745 1.21883e-10 -15.2203 74.9551 1.27582e-10 -19.0726 78.3169 1.33352e-10 -22.9437 81.6599 1.38981e-10 78.4634 -26.655 -2.65593e-11 75.0717 -22.7972 -2.11566e-11 71.6633 -18.9561 -1.58676e-11 68.2382 -15.1316 -1.04623e-11 64.7965 -11.3237 -5.13687e-12 61.3382 -7.53249 2.22286e-13 57.8632 -3.75792 5.57078e-12 54.3716 -1.2335e-11 1.08944e-11 50.8633 3.74128 1.62571e-11 47.3384 7.46591 2.16056e-11 43.7969 11.1739 2.69612e-11 40.2387 14.8653 3.23097e-11 36.6638 18.54 3.76582e-11 33.0723 22.198 4.30067e-11 29.4642 25.8394 4.83623e-11 25.8394 29.4642 5.38643e-11 22.198 33.0723 5.95413e-11 18.54 36.6638 6.52023e-11 14.8653 40.2387 7.0865e-11 11.1739 43.7969 7.65171e-11 7.46591 47.3384 8.21976e-11 3.74128 50.8633 8.78568e-11 1.11811e-10 54.3716 9.35089e-11 -3.75792 57.8632 9.92036e-11 -7.53249 61.3382 1.04827e-10 -11.3237 64.7965 1.1055e-10 -15.1316 68.2382 1.16174e-10 -18.9561 71.6633 1.21883e-10 -22.7972 75.0717 1.27507e-10 -26.655 78.4634 1.33159e-10 75.2348 -30.3341 -3.23328e-11 71.7964 -26.4919 -2.6935e-11 68.3436 -22.664 -2.15346e-11 64.8764 -18.8506 -1.61648e-11 61.3948 -15.0517 -1.07702e-11 57.8987 -11.2671 -5.3897e-12 54.3882 -7.49698 6.73998e-15 50.8633 -3.74128 5.38897e-12 47.324 -1.2335e-11 1.07819e-11 43.7702 3.72685 1.61605e-11 40.202 7.43928 2.15534e-11 36.6194 11.1373 2.69534e-11 33.0224 14.8209 3.23179e-11 29.4109 18.49 3.77179e-11 25.7851 22.1448 4.31179e-11 22.1448 25.7851 4.86243e-11 18.49 29.4109 5.42464e-11 14.8209 33.0224 5.98797e-11 11.1373 36.6194 6.55023e-11 7.43928 40.202 7.11391e-11 3.72685 43.7702 7.67582e-11 1.13658e-10 47.324 8.23773e-11 -3.74128 50.8633 8.80034e-11 -7.49698 54.3882 9.36225e-11 -11.2671 57.8987 9.92415e-11 -15.0517 61.3948 1.04889e-10 -18.8506 64.8764 1.10508e-10 -22.664 68.3436 1.16127e-10 -26.4919 71.7964 1.21775e-10 -30.3341 75.2348 1.27408e-10 71.9739 -33.9811 -3.80922e-11 68.4912 -30.1566 -3.27095e-11 64.9962 -26.3443 -2.72585e-11 61.4891 -22.5442 -2.18052e-11 57.9697 -18.7563 -1.64141e-11 54.4382 -14.9806 -1.09768e-11 50.8944 -11.2172 -5.53598e-12 47.3384 -7.46591 -1.30679e-13 43.7702 -3.72685 5.30305e-12 40.1898 -1.23634e-11 1.07297e-11 36.5972 3.71465 1.61598e-11 32.9924 7.41709 2.15829e-11 29.3754 11.1073 2.7006e-11 25.7462 14.7854 3.24433e-11 22.1048 18.4512 3.78592e-11 18.4512 22.1048 4.3378e-11 14.7854 25.7462 4.8964e-11 11.1073 29.3754 5.45429e-11 7.41709 32.9924 6.01432e-11 3.71465 36.5972 6.57221e-11 1.15051e-10 40.1898 7.13046e-11 -3.72685 43.7702 7.68977e-11 -7.46591 47.3384 8.24908e-11 -11.2172 50.8944 8.80769e-11 -14.9806 54.4382 9.36487e-11 -18.7563 57.9697 9.92276e-11 -22.5442 61.4891 1.04856e-10 -26.3443 64.9962 1.10428e-10 -30.1566 68.4912 1.16e-10 -33.9811 71.9739 1.21586e-10 68.6809 -37.5959 -4.39083e-11 65.156 -33.7913 -3.84191e-11 61.6211 -29.9968 -3.29521e-11 58.0762 -26.2123 -2.74864e-11 54.5214 -22.4377 -2.20065e-11 50.9565 -18.6731 -1.65693e-11 47.3817 -14.9185 -1.10787e-11 43.7969 -11.1739 -5.63612e-12 40.202 -7.43928 -1.6155e-13 36.5972 -3.71465 5.2988e-12 32.9825 -1.21645e-11 1.07627e-11 29.3577 3.70466 1.62337e-11 25.7229 7.39934 2.16941e-11 22.0782 11.084 2.71615e-11 18.4234 14.7587 3.26148e-11 14.7587 18.4234 3.81281e-11 11.084 22.0782 4.36869e-11 7.39934 25.7229 4.9231e-11 3.70466 29.3577 5.47698e-11 1.16316e-10 32.9825 6.03264e-11 -3.71465 36.5972 6.58722e-11 -7.43928 40.202 7.14181e-11 -11.1739 43.7969 7.6964e-11 -14.9185 47.3817 8.25241e-11 -18.6731 50.9565 8.807e-11 -22.4377 54.5214 9.36301e-11 -26.2123 58.0762 9.91547e-11 -29.9968 61.6211 1.04715e-10 -33.7913 65.156 1.10225e-10 -37.5959 68.6809 1.15835e-10 65.3557 -41.1785 -4.96677e-11 61.7909 -37.3961 -4.4154e-11 58.2183 -33.6216 -3.86697e-11 54.6379 -29.8548 -3.31783e-11 51.0497 -26.0957 -2.76824e-11 47.4538 -22.3445 -2.21635e-11 43.8501 -18.601 -1.66499e-11 40.2387 -14.8653 -1.11504e-11 36.6194 -11.1373 -5.63681e-12 32.9924 -7.41709 -1.32059e-13 29.3577 -3.70466 5.36558e-12 25.7152 -1.18803e-11 1.08703e-11 22.0649 3.6969 1.63715e-11 18.4068 7.38602 2.18834e-11 14.741 11.0674 2.7381e-11 11.0674 14.741 3.28849e-11 7.38602 18.4068 3.83929e-11 3.6969 22.0649 4.3912e-11 1.17225e-10 25.7152 4.94178e-11 -3.70466 29.3577 5.49377e-11 -7.41709 32.9924 6.04364e-11 -11.1373 36.6194 6.59386e-11 -14.8653 40.2387 7.14514e-11 -18.601 43.8501 7.69501e-11 -22.3445 47.4538 8.24701e-11 -26.0957 51.0497 8.79687e-11 -29.8548 54.6379 9.35029e-11 -33.6216 58.2183 9.89802e-11 -37.3961 61.7909 1.04493e-10 -41.1785 65.3557 1.10013e-10 61.9984 -44.7289 -5.54554e-11 58.3958 -40.971 -4.99183e-11 54.7877 -37.2186 -4.4382e-11 51.174 -33.4718 -3.88391e-11 47.5548 -29.7305 -3.32695e-11 43.93 -25.9948 -2.77506e-11 40.2997 -22.2646 -2.22121e-11 36.6638 -18.54 -1.6663e-11 33.0224 -14.8209 -1.11227e-11 29.3754 -11.1073 -5.57713e-12 25.7229 -7.39934 -2.79934e-14 22.0649 -3.6969 5.50693e-12 18.4013 -1.14824e-11 1.10561e-11 14.7321 3.69135 1.65946e-11 11.0574 7.37715 2.21366e-11 7.37715 11.0574 2.76444e-11 3.69135 14.7321 3.31123e-11 1.17709e-10 18.4013 3.85832e-11 -3.6969 22.0649 4.40568e-11 -7.39934 25.7229 4.95207e-11 -11.1073 29.3754 5.49899e-11 -14.8209 33.0224 6.04697e-11 -18.54 36.6638 6.59318e-11 -22.2646 40.2997 7.14151e-11 -25.9948 43.93 7.68737e-11 -29.7305 47.5548 8.23606e-11 -33.4718 51.174 8.78156e-11 -37.2186 54.7877 9.32812e-11 -40.971 58.3958 9.87752e-11 -44.7289 61.9984 1.04212e-10 58.6088 -48.2472 -6.12467e-11 54.9708 -44.5159 -5.56689e-11 51.3293 -40.7879 -5.01012e-11 47.6846 -37.0633 -4.44946e-11 44.0365 -33.342 -3.88935e-11 40.3851 -29.624 -3.3335e-11 36.7304 -25.9093 -2.77611e-11 33.0723 -22.198 -2.21657e-11 29.4109 -18.49 -1.65864e-11 25.7462 -14.7854 -1.10151e-11 22.0782 -11.084 -5.41624e-12 18.4068 -7.38602 1.4354e-13 14.7321 -3.69135 5.73707e-12 11.0541 -1.09139e-11 1.13146e-11 7.37271 3.68802 1.68957e-11 3.68802 7.37271 2.24003e-11 1.17943e-10 11.0541 2.78316e-11 -3.69135 14.7321 3.32615e-11 -7.38602 18.4068 3.8695e-11 -11.084 22.0782 4.41178e-11 -14.7854 25.7462 4.95575e-11 -18.49 29.4109 5.49848e-11 -22.198 33.0723 6.04138e-11 -25.9093 36.7304 6.58589e-11 -29.624 40.3851 7.12737e-11 -33.342 44.0365 7.66921e-11 -37.0633 47.6846 8.21531e-11 -40.7879 51.3293 8.75537e-11 -44.5159 54.9708 9.30112e-11 -48.2472 58.6088 9.84402e-11 55.1871 -51.7332 -6.70363e-11 51.5158 -48.0308 -6.13812e-11 47.8433 -44.3295 -5.57723e-11 44.1697 -40.6292 -5.01429e-11 40.495 -36.9301 -4.45334e-11 36.8192 -33.2321 -3.89071e-11 33.1422 -29.5352 -3.33091e-11 29.4642 -25.8394 -2.76854e-11 25.7851 -22.1448 -2.20599e-11 22.1048 -18.4512 -1.64415e-11 18.4234 -14.7587 -1.08223e-11 14.741 -11.0674 -5.20698e-12 11.0574 -7.37715 4.18513e-13 7.37271 -3.68802 6.03423e-12 3.68691 -1.02455e-11 1.16513e-11 1.17906e-10 3.68691 1.71564e-11 -3.68802 7.37271 2.25473e-11 -7.37715 11.0574 2.79456e-11 -11.0674 14.741 3.33319e-11 -14.7587 18.4234 3.87217e-11 -18.4512 22.1048 4.41035e-11 -22.1448 25.7851 4.95008e-11 -25.8394 29.4642 5.4911e-11 -29.5352 33.1422 6.02866e-11 -33.2321 36.8192 6.56471e-11 -36.9301 40.495 7.10662e-11 -40.6292 44.1697 7.64693e-11 -44.3295 47.8433 8.186e-11 -48.0308 51.5158 8.72489e-11 -51.7332 55.1871 9.2652e-11 51.7332 -55.1871 -7.31699e-11 48.0308 -51.5158 -6.75349e-11 44.3295 -47.8433 -6.18884e-11 40.6292 -44.1697 -5.62854e-11 36.9301 -40.495 -5.06217e-11 33.2321 -36.8192 -4.49765e-11 29.5352 -33.1422 -3.93718e-11 25.8394 -29.4642 -3.37312e-11 22.1448 -25.7851 -2.80993e-11 18.4512 -22.1048 -2.24594e-11 14.7587 -18.4234 -1.6811e-11 11.0674 -14.741 -1.11786e-11 7.37715 -11.0574 -5.556e-12 3.68802 -7.37271 8.57092e-14 1.17813e-10 -3.68691 5.72076e-12 -3.68691 -9.49463e-12 1.12436e-11 -7.37271 3.68802 1.66549e-11 -11.0574 7.37715 2.20646e-11 -14.741 11.0674 2.74749e-11 -18.4234 14.7587 3.28906e-11 -22.1048 18.4512 3.8304e-11 -25.7851 22.1448 4.3709e-11 -29.4642 25.8394 4.91172e-11 -33.1422 29.5352 5.45368e-11 -36.8192 33.2321 5.99627e-11 -40.495 36.9301 6.53895e-11 -44.1697 40.6292 7.07603e-11 -47.8433 44.3295 7.6203e-11 -51.5158 48.0308 8.15756e-11 -55.1871 51.7332 8.69989e-11 48.2472 -58.6088 -7.97051e-11 44.5159 -54.9708 -7.40796e-11 40.7879 -51.3293 -6.84404e-11 37.0633 -47.6846 -6.28297e-11 33.342 -44.0365 -5.71889e-11 29.624 -40.3851 -5.15685e-11 25.9093 -36.7304 -4.59242e-11 22.198 -33.0723 -4.03073e-11 18.49 -29.4109 -3.46745e-11 14.7854 -25.7462 -2.90434e-11 11.084 -22.0782 -2.3423e-11 7.38602 -18.4068 -1.77867e-11 3.69135 -14.7321 -1.21592e-11 1.17971e-10 -11.0541 -6.52811e-12 -3.68802 -7.37271 -9.02389e-13 -7.37271 -3.68802 4.65916e-12 -11.0541 -8.98126e-12 1.01523e-11 -14.7321 3.69135 1.56435e-11 -18.4068 7.38602 2.11324e-11 -22.0782 11.084 2.66276e-11 -25.7462 14.7854 3.21183e-11 -29.4109 18.49 3.7609e-11 -33.0723 22.198 4.31086e-11 -36.7304 25.9093 4.85905e-11 -40.3851 29.624 5.40972e-11 -44.0365 33.342 5.9579e-11 -47.6846 37.0633 6.50644e-11 -51.3293 40.7879 7.05498e-11 -54.9708 44.5159 7.60529e-11 -58.6088 48.2472 8.1549e-11 44.7289 -61.9984 -8.62315e-11 40.971 -58.3958 -8.06042e-11 37.2186 -54.7877 -7.49831e-11 33.4718 -51.174 -6.93543e-11 29.7305 -47.5548 -6.37534e-11 25.9948 -43.93 -5.81251e-11 22.2646 -40.2997 -5.2486e-11 18.54 -36.6638 -4.68727e-11 14.8209 -33.0224 -4.12523e-11 11.1073 -29.3754 -3.56302e-11 7.39934 -25.7229 -3.00098e-11 3.6969 -22.0649 -2.43894e-11 1.18327e-10 -18.4013 -1.87654e-11 -3.69135 -14.7321 -1.31415e-11 -7.37715 -11.0574 -7.52109e-12 -11.0574 -7.37715 -1.92513e-12 -14.7321 -3.69135 3.64953e-12 -18.4013 -8.78231e-12 9.21752e-12 -22.0649 3.6969 1.47917e-11 -25.7229 7.39934 2.03606e-11 -29.3754 11.1073 2.59384e-11 -33.0224 14.8209 3.15055e-11 -36.6638 18.54 3.70761e-11 -40.2997 22.2646 4.26361e-11 -43.93 25.9948 4.82352e-11 -47.5548 29.7305 5.37916e-11 -51.174 33.4718 5.93587e-11 -54.7877 37.2186 6.49436e-11 -58.3958 40.971 7.05143e-11 -61.9984 44.7289 7.60849e-11 41.1785 -65.3557 -9.27614e-11 37.3961 -61.7909 -8.71578e-11 33.6216 -58.2183 -8.1533e-11 29.8548 -54.6379 -7.58931e-11 26.0957 -51.0497 -7.02869e-11 22.3445 -47.4538 -6.46825e-11 18.601 -43.8501 -5.90621e-11 14.8653 -40.2387 -5.34595e-11 11.1373 -36.6194 -4.78408e-11 7.41709 -32.9924 -4.22276e-11 3.70466 -29.3577 -3.66001e-11 1.1859e-10 -25.7152 -3.09832e-11 -3.6969 -22.0649 -2.53664e-11 -7.38602 -18.4068 -1.97602e-11 -11.0674 -14.741 -1.41434e-11 -14.741 -11.0674 -8.50253e-12 -18.4068 -7.38602 -2.85638e-12 -22.0649 -3.6969 2.79243e-12 -25.7152 -8.78231e-12 8.4448e-12 -29.3577 3.70466 1.40936e-11 -32.9924 7.41709 1.97389e-11 -36.6194 11.1373 2.54019e-11 -40.2387 14.8653 3.10507e-11 -43.8501 18.601 3.67137e-11 -47.4538 22.3445 4.23626e-11 -51.0497 26.0957 4.80114e-11 -54.6379 29.8548 5.36602e-11 -58.2183 33.6216 5.9309e-11 -61.7909 37.3961 6.4972e-11 -65.3557 41.1785 7.06137e-11 37.5959 -68.6809 -9.93055e-11 33.7913 -65.156 -9.36891e-11 29.9968 -61.6211 -8.80789e-11 26.2123 -58.0762 -8.24745e-11 22.4377 -54.5214 -7.68541e-11 18.6731 -50.9565 -7.12443e-11 14.9185 -47.3817 -6.56399e-11 11.1739 -43.7969 -6.0016e-11 7.43928 -40.202 -5.44276e-11 3.71465 -36.5972 -4.88001e-11 1.19059e-10 -32.9825 -4.3201e-11 -3.70466 -29.3577 -3.75948e-11 -7.39934 -25.7229 -3.19815e-11 -11.084 -22.0782 -2.63682e-11 -14.7587 -18.4234 -2.07621e-11 -18.4234 -14.7587 -1.50884e-11 -22.0782 -11.084 -9.35962e-12 -25.7229 -7.39934 -3.63087e-12 -29.3577 -3.70466 2.11386e-12 -32.9825 -8.896e-12 7.83373e-12 -36.5972 3.71465 1.35678e-11 -40.202 7.43928 1.93054e-11 -43.7969 11.1739 2.50253e-11 -47.3817 14.9185 3.07736e-11 -50.9565 18.6731 3.64935e-11 -54.5214 22.4377 4.22062e-11 -58.0762 26.2123 4.79687e-11 -61.6211 29.9968 5.36886e-11 -65.156 33.7913 5.94298e-11 -68.6809 37.5959 6.51426e-11 33.9811 -71.9739 -1.05814e-10 30.1566 -68.4912 -1.00238e-10 26.3443 -64.9962 -9.4631e-11 22.5442 -61.4891 -8.89973e-11 18.7563 -57.9697 -8.34213e-11 14.9806 -54.4382 -7.78115e-11 11.2172 -50.8944 -7.22018e-11 7.46591 -47.3384 -6.66063e-11 3.72685 -43.7702 -6.09965e-11 1.19442e-10 -40.1898 -5.53939e-11 -3.71465 -36.5972 -4.97877e-11 -7.41709 -32.9924 -4.42029e-11 -11.1073 -29.3754 -3.85896e-11 -14.7854 -25.7462 -3.29834e-11 -18.4512 -22.1048 -2.73701e-11 -22.1048 -18.4512 -2.16711e-11 -25.7462 -14.7854 -1.58451e-11 -29.3754 -11.1073 -1.00471e-11 -32.9924 -7.41709 -4.23839e-12 -36.5972 -3.71465 1.56675e-12 -40.1898 -9.23706e-12 7.38254e-12 -43.7702 3.72685 1.31877e-11 -47.3384 7.46591 1.89857e-11 -50.8944 11.2172 2.48264e-11 -54.4382 14.9806 3.06386e-11 -57.9697 18.7563 3.64508e-11 -61.4891 22.5442 4.22489e-11 -64.9962 26.3443 4.80611e-11 -68.4912 30.1566 5.38734e-11 -71.9739 33.9811 5.96856e-11 30.3341 -75.2348 -1.12337e-10 26.4919 -71.7964 -1.06738e-10 22.664 -68.3436 -1.01164e-10 18.8506 -64.8764 -9.55644e-11 15.0517 -61.3948 -8.9976e-11 11.2671 -57.8987 -8.43592e-11 7.49698 -54.3882 -7.87708e-11 3.74128 -50.8633 -7.3161e-11 1.19869e-10 -47.324 -6.75868e-11 -3.72685 -43.7702 -6.19806e-11 -7.43928 -40.202 -5.63816e-11 -11.1373 -36.6194 -5.07825e-11 -14.8209 -33.0224 -4.51976e-11 -18.49 -29.4109 -3.95985e-11 -22.1448 -25.7851 -3.39924e-11 -25.7851 -22.1448 -2.82481e-11 -29.4109 -18.49 -2.23626e-11 -33.0224 -14.8209 -1.64775e-11 -36.6194 -11.1373 -1.05871e-11 -40.202 -7.43928 -4.68958e-12 -43.7702 -3.72685 1.20792e-12 -47.324 -9.60654e-12 7.09122e-12 -50.8633 3.74128 1.29958e-11 -54.3882 7.49698 1.88862e-11 -57.8987 11.2671 2.47695e-11 -61.3948 15.0517 3.06528e-11 -64.8764 18.8506 3.65361e-11 -68.3436 22.664 4.24478e-11 -71.7964 26.4919 4.83595e-11 -75.2348 30.3341 5.42428e-11 26.655 -78.4634 -1.1886e-10 22.7972 -75.0717 -1.13324e-10 18.9561 -71.6633 -1.0769e-10 15.1316 -68.2382 -1.02114e-10 11.3237 -64.7965 -9.6513e-11 7.53249 -61.3382 -9.09353e-11 3.75792 -57.8632 -8.53397e-11 1.20195e-10 -54.3716 -7.97371e-11 -3.74128 -50.8633 -7.41593e-11 -7.46591 -47.3384 -6.85603e-11 -11.1739 -43.7969 -6.29825e-11 -14.8653 -40.2387 -5.73976e-11 -18.54 -36.6638 -5.18057e-11 -22.198 -33.0723 -4.62066e-11 -25.8394 -29.4642 -4.06288e-11 -29.4642 -25.8394 -3.48424e-11 -33.0723 -22.198 -2.88694e-11 -36.6638 -18.54 -2.29008e-11 -40.2387 -14.8653 -1.69322e-11 -43.7969 -11.1739 -1.09495e-11 -47.3384 -7.46591 -4.98801e-12 -50.8633 -3.74128 9.80549e-13 -54.3716 -9.9476e-12 6.96332e-12 -57.8632 3.75792 1.29319e-11 -61.3382 7.53249 1.89004e-11 -64.7965 11.3237 2.4869e-11 -68.2382 15.1316 3.08518e-11 -71.6633 18.9561 3.68061e-11 -75.0717 22.7972 4.27889e-11 -78.4634 26.655 4.87148e-11 22.9437 -81.6599 -1.25397e-10 19.0726 -78.3169 -1.19842e-10 15.2203 -74.9551 -1.14218e-10 11.3869 -71.5745 -1.08654e-10 7.57243 -68.175 -1.03064e-10 3.77679 -64.7566 -9.7458e-11 1.20792e-10 -61.3193 -9.19158e-11 -3.75792 -57.8632 -8.63309e-11 -7.49698 -54.3882 -8.07461e-11 -11.2172 -50.8944 -7.51541e-11 -14.9185 -47.3817 -6.95835e-11 -18.601 -43.8501 -6.39915e-11 -22.2646 -40.2997 -5.84208e-11 -25.9093 -36.7304 -5.2836e-11 -29.5352 -33.1422 -4.72369e-11 -33.1422 -29.5352 -4.14371e-11 -36.7304 -25.9093 -3.53637e-11 -40.2997 -22.2646 -2.93205e-11 -43.8501 -18.601 -2.32845e-11 -47.3817 -14.9185 -1.72165e-11 -50.8944 -11.2172 -1.11697e-11 -54.3882 -7.49698 -5.11591e-12 -57.8632 -3.75792 9.37916e-13 -61.3193 -1.02318e-11 6.99174e-12 -64.7566 3.77679 1.30314e-11 -68.175 7.57243 1.90994e-11 -71.5745 11.3869 2.5139e-11 -74.9551 15.2203 3.11786e-11 -78.3169 19.0726 3.72324e-11 -81.6599 22.9437 4.32578e-11 19.2002 -84.8242 -1.31934e-10 15.318 -81.5323 -1.26359e-10 11.4569 -78.2193 -1.20759e-10 7.61682 -74.8852 -1.15229e-10 3.79787 -71.5301 -1.0963e-10 1.21119e-10 -68.1539 -1.04073e-10 -3.77679 -64.7566 -9.84954e-11 -7.53249 -61.3382 -9.28964e-11 -11.2671 -57.8987 -8.73328e-11 -14.9806 -54.4382 -8.17408e-11 -18.6731 -50.9565 -7.61702e-11 -22.3445 -47.4538 -7.05995e-11 -25.9948 -43.93 -6.50147e-11 -29.624 -40.3851 -5.94298e-11 -33.2321 -36.8192 -5.38591e-11 -36.8192 -33.2321 -4.79954e-11 -40.3851 -29.624 -4.18865e-11 -43.93 -25.9948 -3.57474e-11 -47.4538 -22.3445 -2.96012e-11 -50.9565 -18.6731 -2.34692e-11 -54.4382 -14.9806 -1.73515e-11 -57.8987 -11.2671 -1.12266e-11 -61.3382 -7.53249 -5.07328e-12 -64.7566 -3.77679 1.03739e-12 -68.1539 -1.05729e-11 7.17648e-12 -71.5301 3.79787 1.32871e-11 -74.8852 7.61682 1.94689e-11 -78.2193 11.4569 2.55511e-11 -81.5323 15.318 3.16902e-11 -84.8242 19.2002 3.78577e-11 15.4245 -87.9563 -1.38499e-10 11.5334 -84.7177 -1.32904e-10 7.66564 -81.4557 -1.27283e-10 3.82117 -78.1705 -1.21744e-10 1.21602e-10 -74.8619 -1.16184e-10 -3.79787 -71.5301 -1.10603e-10 -7.57243 -68.175 -1.05047e-10 -11.3237 -64.7965 -9.9476e-11 -15.0517 -61.3948 -9.39124e-11 -18.7563 -57.9697 -8.83276e-11 -22.4377 -54.5214 -8.2764e-11 -26.0957 -51.0497 -7.71934e-11 -29.7305 -47.5548 -7.16369e-11 -33.342 -44.0365 -6.60663e-11 -36.9301 -40.495 -6.04814e-11 -40.495 -36.9301 -5.46097e-11 -44.0365 -33.342 -4.83809e-11 -47.5548 -29.7305 -4.21743e-11 -51.0497 -26.0957 -3.59606e-11 -54.5214 -22.4377 -2.97433e-11 -57.9697 -18.7563 -2.3519e-11 -61.3948 -15.0517 -1.7323e-11 -64.7965 -11.3237 -1.10845e-11 -68.175 -7.57243 -4.90274e-12 -71.5301 -3.79787 1.29319e-12 -74.8619 -1.06866e-11 7.53175e-12 -78.1705 3.82117 1.36993e-11 -81.4557 7.66564 1.9952e-11 -84.7177 11.5334 2.6148e-11 -87.9563 15.4245 3.23723e-11 11.6166 -91.0562 -1.45008e-10 7.7189 -87.8731 -1.39452e-10 3.84669 -84.6644 -1.33838e-10 1.21844e-10 -81.4302 -1.2831e-10 -3.82117 -78.1705 -1.22743e-10 -7.61682 -74.8852 -1.17197e-10 -11.3869 -71.5745 -1.11612e-10 -15.1316 -68.2382 -1.06034e-10 -18.8506 -64.8764 -1.00506e-10 -22.5442 -61.4891 -9.49285e-11 -26.2123 -58.0762 -8.93579e-11 -29.8548 -54.6379 -8.37872e-11 -33.4718 -51.174 -7.82308e-11 -37.0633 -47.6846 -7.26601e-11 -40.6292 -44.1697 -6.71037e-11 -44.1697 -40.6292 -6.11697e-11 -47.6846 -37.0633 -5.48823e-11 -51.174 -33.4718 -4.86011e-11 -54.6379 -29.8548 -4.22773e-11 -58.0762 -26.2123 -3.60174e-11 -61.4891 -22.5442 -2.97007e-11 -64.8764 -18.8506 -2.34195e-11 -68.2382 -15.1316 -1.71241e-11 -71.5745 -11.3869 -1.08571e-11 -74.8852 -7.61682 -4.54747e-12 -78.1705 -3.82117 1.76215e-12 -81.4302 -1.05729e-11 8.01492e-12 -84.6644 3.84669 1.42961e-11 -87.8731 7.7189 2.05773e-11 -91.0562 11.6166 2.69154e-11 7.7766 -94.124 -1.51488e-10 3.87443 -90.9985 -1.45998e-10 1.22107e-10 -87.8453 -1.40393e-10 -3.84669 -84.6644 -1.34875e-10 -7.66564 -81.4557 -1.29283e-10 -11.4569 -78.2193 -1.23769e-10 -15.2203 -74.9551 -1.18177e-10 -18.9561 -71.6633 -1.12635e-10 -22.664 -68.3436 -1.07057e-10 -26.3443 -64.9962 -1.01522e-10 -29.9968 -61.6211 -9.59375e-11 -33.6216 -58.2183 -9.0381e-11 -37.2186 -54.7877 -8.48672e-11 -40.7879 -51.3293 -7.92681e-11 -44.3295 -47.8433 -7.37259e-11 -47.8433 -44.3295 -6.77849e-11 -51.3293 -40.7879 -6.13838e-11 -54.7877 -37.2186 -5.50173e-11 -58.2183 -33.6216 -4.8658e-11 -61.6211 -29.9968 -4.22773e-11 -64.9962 -26.3443 -3.5925e-11 -68.3436 -22.664 -2.95159e-11 -71.6633 -18.9561 -2.31637e-11 -74.9551 -15.2203 -1.67688e-11 -78.2193 -11.4569 -1.03739e-11 -81.4557 -7.66564 -4.00746e-12 -84.6644 -3.84669 2.30216e-12 -87.8453 -1.03455e-11 8.69704e-12 -90.9985 3.87443 1.50919e-11 -94.124 7.7766 2.14015e-11 3.90439 -97.1596 -1.5811e-10 1.22039e-10 -94.094 -1.52516e-10 -3.87443 -90.9985 -1.46919e-10 -7.7189 -87.8731 -1.41412e-10 -11.5334 -84.7177 -1.35856e-10 -15.318 -81.5323 -1.30278e-10 -19.0726 -78.3169 -1.24771e-10 -22.7972 -75.0717 -1.19194e-10 -26.4919 -71.7964 -1.1363e-10 -30.1566 -68.4912 -1.08102e-10 -33.7913 -65.156 -1.02517e-10 -37.3961 -61.7909 -9.69891e-11 -40.971 -58.3958 -9.14611e-11 -44.5159 -54.9708 -8.58904e-11 -48.0308 -51.5158 -8.03482e-11 -51.5158 -48.0308 -7.43281e-11 -54.9708 -44.5159 -6.78817e-11 -58.3958 -40.971 -6.14406e-11 -61.7909 -37.3961 -5.50031e-11 -65.156 -33.7913 -4.85159e-11 -68.4912 -30.1566 -4.20926e-11 -71.7964 -26.4919 -3.56266e-11 -75.0717 -22.7972 -2.91891e-11 -78.3169 -19.0726 -2.27089e-11 -81.5323 -15.318 -1.62572e-11 -84.7177 -11.5334 -9.83391e-12 -87.8731 -7.7189 -3.38218e-12 -90.9985 -3.87443 3.06954e-12 -94.094 -9.77707e-12 9.54969e-12 -97.1596 3.90439 1.5973e-11 1.22327e-10 -100.163 -1.64562e-10 -3.90439 -97.1596 -1.59091e-10 -7.7766 -94.124 -1.53474e-10 -11.6166 -91.0562 -1.48002e-10 -15.4245 -87.9563 -1.42428e-10 -19.2002 -84.8242 -1.369e-10 -22.9437 -81.6599 -1.31294e-10 -26.655 -78.4634 -1.2578e-10 -30.3341 -75.2348 -1.20238e-10 -33.9811 -71.9739 -1.14682e-10 -37.5959 -68.6809 -1.09168e-10 -41.1785 -65.3557 -1.03583e-10 -44.7289 -61.9984 -9.80549e-11 -48.2472 -58.6088 -9.25127e-11 -51.7332 -55.1871 -8.69846e-11 -55.1871 -51.7332 -8.09308e-11 -58.6088 -48.2472 -7.43938e-11 -61.9984 -44.7289 -6.78639e-11 -65.3557 -41.1785 -6.1334e-11 -68.6809 -37.5959 -5.47828e-11 -71.9739 -33.9811 -4.82743e-11 -75.2348 -30.3341 -4.17515e-11 -78.4634 -26.655 -3.52145e-11 -81.6599 -22.9437 -2.86491e-11 -84.8242 -19.2002 -2.21405e-11 -87.9563 -15.4245 -1.56035e-11 -91.0562 -11.6166 -9.09495e-12 -94.124 -7.7766 -2.52953e-12 -97.1596 -3.90439 3.9222e-12 -100.163 -8.98126e-12 1.0516e-11 127.723 -2.55795e-11 1.33014e-11 123.836 4.92149 1.86331e-11 119.912 9.80603 2.39044e-11 115.951 14.6536 2.92371e-11 111.953 19.4643 3.45786e-11 107.919 24.238 3.98828e-11 103.847 28.9747 4.51799e-11 99.7381 33.6745 5.04912e-11 95.5925 38.3374 5.57989e-11 91.41 42.9633 6.11209e-11 87.1905 47.5523 6.645e-11 82.934 52.1043 7.17506e-11 78.6406 56.6194 7.70513e-11 74.3102 61.0975 8.23945e-11 69.943 65.5387 8.76668e-11 65.5387 69.943 9.32445e-11 61.0975 74.3102 9.89928e-11 56.6194 78.6406 1.04791e-10 52.1043 82.934 1.10575e-10 47.5523 87.1905 1.16394e-10 42.9633 91.41 1.22149e-10 38.3374 95.5925 1.27905e-10 33.6745 99.7381 1.33696e-10 28.9747 103.847 1.39508e-10 24.238 107.919 1.45292e-10 19.4643 111.953 1.51005e-10 14.6536 115.951 1.56874e-10 9.80603 119.912 1.62657e-10 4.92149 123.836 1.68413e-10 1.24032e-10 127.723 1.7414e-10 123.836 -4.92149 7.16753e-12 119.878 -2.2407e-11 1.25661e-11 115.885 4.88709 1.79914e-11 111.858 9.73978 2.33713e-11 107.796 14.5581 2.88543e-11 103.7 19.342 3.42804e-11 99.57 24.0915 3.96639e-11 95.4052 28.8066 4.51043e-11 91.2061 33.4873 5.0534e-11 86.9726 38.1336 5.59814e-11 82.7047 42.7455 6.13791e-11 78.4024 47.323 6.68053e-11 74.0656 51.8661 7.22172e-11 69.6945 56.3748 7.76789e-11 65.289 60.8491 8.30837e-11 60.8491 65.289 8.86952e-11 56.3748 69.6945 9.44496e-11 51.8661 74.0656 1.00282e-10 47.323 78.4024 1.06065e-10 42.7455 82.7047 1.11858e-10 38.1336 86.9726 1.17655e-10 33.4873 91.2061 1.23424e-10 28.8066 95.4052 1.29228e-10 24.0915 99.57 1.35039e-10 19.342 103.7 1.40786e-10 14.5581 107.796 1.46619e-10 9.73978 111.858 1.52423e-10 4.88709 115.885 1.58213e-10 1.2065e-10 119.878 1.63974e-10 -4.92149 123.836 1.69764e-10 119.912 -9.80603 1.0337e-12 115.885 -4.88709 6.52404e-12 111.826 -1.95772e-11 1.20428e-11 107.735 4.85524 1.76015e-11 103.612 9.67863 2.31194e-11 99.4579 14.4702 2.86817e-11 95.2715 19.2299 3.42226e-11 91.0532 23.9577 3.97281e-11 86.8032 28.6537 4.52619e-11 82.5212 33.3178 5.08064e-11 78.2074 37.9501 5.63296e-11 73.8618 42.5505 6.18812e-11 69.4843 47.1191 6.74116e-11 65.075 51.6559 7.2949e-11 60.6338 56.1607 7.84722e-11 56.1607 60.6338 8.41366e-11 51.6559 65.075 8.99312e-11 47.1191 69.4843 9.57485e-11 42.5505 73.8618 1.01559e-10 37.9501 78.2074 1.07351e-10 33.3178 82.5212 1.13147e-10 28.6537 86.8032 1.18957e-10 23.9577 91.0532 1.24746e-10 19.2299 95.2715 1.30542e-10 14.4702 99.4579 1.36352e-10 9.67863 103.612 1.42148e-10 4.85524 107.735 1.47958e-10 1.18071e-10 111.826 1.53711e-10 -4.88709 115.885 1.59536e-10 -9.80603 119.912 1.65332e-10 115.951 -14.6536 -5.14276e-12 111.858 -9.73978 4.84609e-13 107.735 -4.85524 6.13951e-12 103.583 -1.68683e-11 1.17251e-11 99.4018 4.82594 1.7436e-11 95.1912 9.62257 2.30722e-11 90.9513 14.3899 2.87067e-11 86.6821 19.1279 3.43376e-11 82.3836 23.8367 3.99899e-11 78.0558 28.5161 4.56457e-11 73.6987 33.1662 5.12872e-11 69.3123 37.787 5.6943e-11 64.8966 42.3785 6.25917e-11 60.4516 46.9408 6.82191e-11 55.9773 51.4737 7.38962e-11 51.4737 55.9773 7.95873e-11 46.9408 60.4516 8.54306e-11 42.3785 64.8966 9.12291e-11 37.787 69.3123 9.7031e-11 33.1662 73.6987 1.02851e-10 28.5161 78.0558 1.08639e-10 23.8367 82.3836 1.14476e-10 19.1279 86.6821 1.20257e-10 14.3899 90.9513 1.2608e-10 9.62257 95.1912 1.31861e-10 4.82594 99.4018 1.37705e-10 1.15847e-10 103.583 1.43507e-10 -4.85524 107.735 1.49324e-10 -9.73978 111.858 1.55126e-10 