<?xml version="1.0"?> 
<VTKFile type="StructuredGrid" version="0.1"> 
<StructuredGrid WholeExtent="0 29 0 29 0 29"> 
<Piece Extent="0 29 0 29 0 29"> 
<PointData>
<DataArray type="Float32" Name="hfield" format="ascii" NumberOfComponents="3"> 
-745.735 -1.06702e-08 6.74368e-09 -724.979 -30.6736 6.17752e-09 -703.868 -60.9931 5.61144e-09 -682.404 -90.9584 5.04539e-09 -660.585 -120.569 4.47915e-09 -638.412 -149.826 3.9133e-09 -615.884 -178.729 3.3472e-09 -593.003 -207.278 2.78101e-09 -569.767 -235.472 2.21485e-09 -546.177 -263.312 1.6488e-09 -522.233 -290.798 1.08281e-09 -497.935 -317.93 5.16764e-10 -473.282 -344.707 -4.93969e-11 -448.276 -371.131 -6.15501e-10 -422.915 -397.2 -1.18143e-09 -397.2 -422.915 -1.7013e-09 -371.131 -448.276 -2.17476e-09 -344.707 -473.282 -2.64819e-09 -317.93 -497.935 -3.12161e-09 -290.798 -522.233 -3.59501e-09 -263.312 -546.177 -4.06845e-09 -235.472 -569.767 -4.54179e-09 -207.278 -593.003 -5.01518e-09 -178.729 -615.884 -5.4888e-09 -149.826 -638.412 -5.96231e-09 -120.569 -660.585 -6.43558e-09 -90.9584 -682.404 -6.90875e-09 -60.9931 -703.868 -7.38248e-09 -30.6736 -724.979 -7.85553e-09 -1.23805e-08 -745.735 -8.32915e-09 -724.979 30.6736 6.65918e-09 -703.539 -9.89776e-09 6.10554e-09 -681.768 -30.3439 5.55179e-09 -659.669 -60.358 4.9978e-09 -637.239 -90.0424 4.44434e-09 -614.48 -119.397 3.89052e-09 -591.391 -148.422 3.33665e-09 -567.972 -177.117 2.78269e-09 -544.223 -205.482 2.22904e-09 -520.145 -233.518 1.67523e-09 -495.736 -261.224 1.12152e-09 -470.998 -288.6 5.67709e-10 -445.931 -315.646 1.37787e-11 -420.533 -342.362 -5.39867e-10 -394.806 -368.749 -1.09368e-09 -368.749 -394.806 -1.60174e-09 -342.362 -420.533 -2.0641e-09 -315.646 -445.931 -2.52642e-09 -288.6 -470.998 -2.98884e-09 -261.224 -495.736 -3.45122e-09 -233.518 -520.145 -3.91344e-09 -205.482 -544.223 -4.37583e-09 -177.117 -567.972 -4.83833e-09 -148.422 -591.391 -5.3006e-09 -119.397 -614.48 -5.76299e-09 -90.0424 -637.239 -6.22527e-09 -60.358 -659.669 -6.68754e-09 -30.3439 -681.768 -7.15004e-09 -1.21928e-08 -703.539 -7.61254e-09 30.6736 -724.979 -8.07482e-09 -703.868 60.9931 6.5749e-09 -681.768 30.3439 6.03367e-09 -659.363 -9.25941e-09 5.49196e-09 -636.653 -30.0385 4.95059e-09 -613.637 -59.7718 4.40907e-09 -590.316 -89.1996 3.86786e-09 -566.689 -118.322 3.32613e-09 -542.757 -147.139 2.78471e-09 -518.52 -175.651 2.24324e-09 -493.978 -203.858 1.70171e-09 -469.13 -231.759 1.16013e-09 -443.977 -259.355 6.18654e-10 -418.518 -286.645 7.72954e-11 -392.754 -313.631 -4.64177e-10 -366.685 -340.31 -1.00582e-09 -340.31 -366.685 -1.50214e-09 -313.631 -392.754 -1.95347e-09 -286.645 -418.518 -2.40484e-09 -259.355 -443.977 -2.85609e-09 -231.759 -469.13 -3.30727e-09 -203.858 -493.978 -3.75865e-09 -175.651 -518.52 -4.20998e-09 -147.139 -542.757 -4.66148e-09 -118.322 -566.689 -5.11252e-09 -89.1996 -590.316 -5.56402e-09 -59.7718 -613.637 -6.01518e-09 -30.0385 -636.653 -6.46645e-09 -1.20561e-08 -659.363 -6.91783e-09 30.3439 -681.768 -7.3691e-09 60.9931 -703.868 -7.8206e-09 -682.404 90.9584 6.49063e-09 -659.669 60.358 5.96157e-09 -636.653 30.0385 5.43239e-09 -613.356 -8.74161e-09 4.90319e-09 -589.778 -29.7576 4.37409e-09 -565.92 -59.2344 3.84493e-09 -541.78 -88.4302 3.31561e-09 -517.36 -117.345 2.78634e-09 -492.659 -145.979 2.25732e-09 -467.676 -174.332 1.72803e-09 -442.413 -202.404 1.1989e-09 -416.869 -230.196 6.69713e-10 -391.044 -257.706 1.40471e-10 -364.939 -284.936 -3.88714e-10 -338.552 -311.884 -9.17785e-10 -311.884 -338.552 -1.4026e-09 -284.936 -364.939 -1.84285e-09 -257.706 -391.044 -2.28307e-09 -230.196 -416.869 -2.72334e-09 -202.404 -442.413 -3.16355e-09 -174.332 -467.676 -3.60381e-09 -145.979 -492.659 -4.04402e-09 -117.345 -517.36 -4.48423e-09 -88.4302 -541.78 -4.92444e-09 -59.2344 -565.92 -5.36471e-09 -29.7576 -589.778 -5.80508e-09 -1.19637e-08 -613.356 -6.24535e-09 30.0385 -636.653 -6.68562e-09 60.358 -659.669 -7.12577e-09 90.9584 -682.404 -7.56604e-09 -660.585 120.569 6.40659e-09 -637.239 90.0424 5.88957e-09 -613.637 59.7718 5.37277e-09 -589.778 29.7576 4.85589e-09 -565.663 -8.33211e-09 4.33885e-09 -541.292 -29.5012 3.82181e-09 -516.664 -58.7458 3.30506e-09 -491.779 -87.734 2.78819e-09 -466.638 -116.466 2.27135e-09 -441.241 -144.941 1.75451e-09 -415.587 -173.16 1.23756e-09 -389.676 -201.122 7.20658e-10 -363.51 -228.828 2.0376e-10 -337.086 -256.277 -3.13194e-10 -310.406 -283.47 -8.29978e-10 -283.47 -310.406 -1.30283e-09 -256.277 -337.086 -1.73208e-09 -228.828 -363.51 -2.16133e-09 -201.122 -389.676 -2.59053e-09 -173.16 -415.587 -3.01965e-09 -144.941 -441.241 -3.4488e-09 -116.466 -466.638 -3.87812e-09 -87.734 -491.779 -4.30721e-09 -58.7458 -516.664 -4.7363e-09 -29.5012 -541.292 -5.16562e-09 -1.19092e-08 -565.663 -5.59465e-09 29.7576 -589.778 -6.02403e-09 59.7718 -613.637 -6.45318e-09 90.0424 -637.239 -6.8821e-09 120.569 -660.585 -7.3117e-09 -638.412 149.826 6.32209e-09 -614.48 119.397 5.8176e-09 -590.316 89.1996 5.31277e-09 -565.92 59.2344 4.80837e-09 -541.292 29.5012 4.3038e-09 -516.432 -8.02001e-09 3.79929e-09 -491.34 -29.2691 3.29465e-09 -466.015 -58.3062 2.78996e-09 -440.459 -87.1111 2.28549e-09 -414.671 -115.684 1.78082e-09 -388.651 -144.025 1.27627e-09 -362.398 -172.134 7.71773e-10 -335.914 -200.011 2.6705e-10 -309.197 -227.655 -2.37447e-10 -282.249 -255.068 -7.42114e-10 -255.068 -282.249 -1.20339e-09 -227.655 -309.197 -1.62152e-09 -200.011 -335.914 -2.03964e-09 -172.134 -362.398 -2.45781e-09 -144.025 -388.651 -2.8759e-09 -115.684 -414.671 -3.29396e-09 -87.1111 -440.459 -3.71221e-09 -58.3062 -466.015 -4.1303e-09 -29.2691 -491.34 -4.54839e-09 -1.18835e-08 -516.432 -4.96648e-09 29.5012 -541.292 -5.38445e-09 59.2344 -565.92 -5.80259e-09 89.1996 -590.316 -6.22085e-09 119.397 -614.48 -6.63911e-09 149.826 -638.412 -7.05714e-09 -615.884 178.729 6.23781e-09 -591.391 148.422 5.74562e-09 -566.689 118.322 5.25328e-09 -541.78 88.4302 4.76104e-09 -516.664 58.7458 4.26876e-09 -491.34 29.2691 3.77647e-09 -465.808 -7.7917e-09 3.28425e-09 -440.068 -29.0615 2.79178e-09 -414.121 -57.9153 2.29952e-09 -387.967 -86.5615 1.80728e-09 -361.604 -115 1.31498e-09 -335.034 -143.231 8.22662e-10 -308.257 -171.254 3.30396e-10 -281.272 -199.07 -1.61813e-10 -254.079 -226.678 -6.54136e-10 -226.678 -254.079 -1.10385e-09 -199.07 -281.272 -1.51087e-09 -171.254 -308.257 -1.91795e-09 -143.231 -335.034 -2.32495e-09 -115 -361.604 -2.73209e-09 -86.5615 -387.967 -3.13906e-09 -57.9153 -414.121 -3.54603e-09 -29.0615 -440.068 -3.95328e-09 -1.18816e-08 -465.808 -4.36025e-09 29.2691 -491.34 -4.76733e-09 58.7458 -516.664 -5.17441e-09 88.4302 -541.78 -5.5815e-09 118.322 -566.689 -5.98864e-09 148.422 -591.391 -6.39566e-09 178.729 -615.884 -6.80258e-09 -593.003 207.278 6.15365e-09 -567.972 177.117 5.67374e-09 -542.757 147.139 5.19366e-09 -517.36 117.345 4.71369e-09 -491.779 87.734 4.23368e-09 -466.015 58.3062 3.75366e-09 -440.068 29.0615 3.27378e-09 -413.938 -7.63623e-09 2.79358e-09 -387.625 -28.8783 2.31368e-09 -361.128 -57.5734 1.83368e-09 -334.448 -86.0852 1.3537e-09 -307.585 -114.414 8.73692e-10 -280.539 -142.559 3.93685e-10 -253.309 -170.522 -8.62933e-11 -225.897 -198.301 -5.66329e-10 -198.301 -225.897 -1.00425e-09 -170.522 -253.309 -1.4002e-09 -142.559 -280.539 -1.79617e-09 -114.414 -307.585 -2.19231e-09 -86.0852 -334.448 -2.5883e-09 -57.5734 -361.128 -2.98424e-09 -28.8783 -387.625 -3.38018e-09 -1.18936e-08 -413.938 -3.77626e-09 29.0615 -440.068 -4.17228e-09 58.3062 -466.015 -4.56825e-09 87.734 -491.779 -4.96427e-09 117.345 -517.36 -5.36035e-09 147.139 -542.757 -5.75597e-09 177.117 -567.972 -6.15233e-09 207.278 -593.003 -6.54836e-09 -569.767 235.472 6.06927e-09 -544.223 205.482 5.60158e-09 -518.52 175.651 5.13385e-09 -492.659 145.979 4.66617e-09 -466.638 116.466 4.19858e-09 -440.459 87.1111 3.73076e-09 -414.121 57.9153 3.26312e-09 -387.625 28.8783 2.79552e-09 -360.969 -7.53971e-09 2.32777e-09 -334.155 -28.7195 1.86008e-09 -307.182 -57.2802 1.39236e-09 -280.05 -85.6822 9.24666e-10 -252.76 -113.925 4.57031e-10 -225.31 -142.01 -1.06598e-11 -197.702 -169.935 -4.78408e-10 -169.935 -197.702 -9.04667e-10 -142.01 -225.31 -1.28964e-09 -113.925 -252.76 -1.6745e-09 -85.6822 -280.05 -2.05948e-09 -57.2802 -307.182 -2.44441e-09 -28.7195 -334.155 -2.82934e-09 -1.19159e-08 -360.969 -3.2143e-09 28.8783 -387.625 -3.59924e-09 57.9153 -414.121 -3.98414e-09 87.1111 -440.459 -4.3691e-09 116.466 -466.638 -4.75401e-09 145.979 -492.659 -5.13891e-09 175.651 -518.52 -5.52387e-09 205.482 -544.223 -5.909e-09 235.472 -569.767 -6.29368e-09 -546.177 263.312 5.98494e-09 -520.145 233.518 5.52962e-09 -493.978 203.858 5.07418e-09 -467.676 174.332 4.61885e-09 -441.241 144.941 4.16349e-09 -414.671 115.684 3.70808e-09 -387.967 86.5615 3.2526e-09 -361.128 57.5734 2.79723e-09 -334.155 28.7195 2.34191e-09 -307.048 -7.4906e-09 1.88645e-09 -279.806 -28.5852 1.4311e-09 -252.43 -57.036 9.75696e-10 -224.92 -85.3524 5.20292e-10 -197.275 -113.535 6.49168e-11 -169.496 -141.582 -3.90459e-10 -141.582 -169.496 -8.05116e-10 -113.535 -197.275 -1.17893e-09 -85.3524 -224.92 -1.55284e-09 -57.036 -252.43 -1.92673e-09 -28.5852 -279.806 -2.3006e-09 -1.19393e-08 -307.048 -2.6745e-09 28.7195 -334.155 -3.04834e-09 57.5734 -361.128 -3.42227e-09 86.5615 -387.967 -3.79611e-09 115.684 -414.671 -4.16996e-09 144.941 -441.241 -4.5438e-09 174.332 -467.676 -4.9177e-09 203.858 -493.978 -5.29166e-09 233.518 -520.145 -5.66562e-09 263.312 -546.177 -6.03935e-09 -522.233 290.798 5.90061e-09 -495.736 261.224 5.45768e-09 -469.13 231.759 5.01452e-09 -442.413 202.404 4.57147e-09 -415.587 173.16 4.12827e-09 -388.651 144.025 3.68524e-09 -361.604 115 3.2422e-09 -334.448 86.0852 2.79904e-09 -307.182 57.2802 2.35596e-09 -279.806 28.5852 1.91287e-09 -252.32 -7.4765e-09 1.46979e-09 -224.724 -28.4752 1.02667e-09 -197.018 -56.8405 5.8361e-10 -169.203 -85.0959 1.40493e-10 -141.277 -113.241 -3.02595e-10 -113.241 -141.277 -7.05525e-10 -85.0959 -169.203 -1.06826e-09 -56.8405 -197.018 -1.43113e-09 -28.4752 -224.724 -1.79396e-09 -1.19575e-08 -252.32 -2.15677e-09 28.5852 -279.806 -2.51963e-09 57.2802 -307.182 -2.88244e-09 86.0852 -334.448 -3.24519e-09 115 -361.604 -3.608e-09 144.025 -388.651 -3.97079e-09 173.16 -415.587 -4.33365e-09 202.404 -442.413 -4.69655e-09 231.759 -469.13 -5.05939e-09 261.224 -495.736 -5.42206e-09 290.798 -522.233 -5.78484e-09 -497.935 317.93 5.81634e-09 -470.998 288.6 5.38565e-09 -443.977 259.355 4.95472e-09 -416.869 230.196 4.52397e-09 -389.676 201.122 4.09326e-09 -362.398 172.134 3.66247e-09 -335.034 143.231 3.2317e-09 -307.585 114.414 2.80085e-09 -280.05 85.6822 2.37003e-09 -252.43 57.036 1.93927e-09 -224.724 28.4752 1.50847e-09 -196.933 -7.4848e-09 1.07773e-09 -169.056 -28.3897 6.46914e-10 -141.094 -56.694 2.16127e-10 -113.046 -84.9127 -2.14645e-10 -84.9127 -113.046 -6.05917e-10 -56.694 -141.094 -9.57678e-10 -28.3897 -169.056 -1.30945e-09 -1.19633e-08 -196.933 -1.66117e-09 28.4752 -224.724 -2.01296e-09 57.036 -252.43 -2.3647e-09 85.6822 -280.05 -2.71644e-09 114.414 -307.585 -3.06823e-09 143.231 -335.034 -3.42006e-09 172.134 -362.398 -3.77167e-09 201.122 -389.676 -4.12351e-09 230.196 -416.869 -4.47514e-09 259.355 -443.977 -4.82698e-09 288.6 -470.998 -5.17867e-09 317.93 -497.935 -5.53045e-09 -473.282 344.707 5.73209e-09 -445.931 315.646 5.31352e-09 -418.518 286.645 4.89497e-09 -391.044 257.706 4.47656e-09 -363.51 228.828 4.05823e-09 -335.914 200.011 3.63968e-09 -308.257 171.254 3.22109e-09 -280.539 142.559 2.80262e-09 -252.76 113.925 2.38423e-09 -224.92 85.3524 1.96569e-09 -197.018 56.8405 1.54719e-09 -169.056 28.3897 1.1287e-09 -141.033 -7.50424e-09 7.10217e-10 -112.948 -28.3287 2.91718e-10 -84.8028 -56.5963 -1.26767e-10 -56.5963 -84.8028 -5.06329e-10 -28.3287 -112.948 -8.47015e-10 -1.19491e-08 -141.033 -1.18773e-09 28.3897 -169.056 -1.52844e-09 56.8405 -197.018 -1.86912e-09 85.3524 -224.92 -2.20979e-09 113.925 -252.76 -2.55057e-09 142.559 -280.539 -2.89118e-09 171.254 -308.257 -3.2319e-09 200.011 -335.914 -3.57261e-09 228.828 -363.51 -3.91325e-09 257.706 -391.044 -4.25408e-09 286.645 -418.518 -4.59465e-09 315.646 -445.931 -4.93531e-09 344.707 -473.282 -5.27603e-09 -448.276 371.131 5.64779e-09 -420.533 342.362 5.24153e-09 -392.754 313.631 4.83531e-09 -364.939 284.936 4.42927e-09 -337.086 256.277 4.02307e-09 -309.197 227.655 3.61672e-09 -281.272 199.07 3.21059e-09 -253.309 170.522 2.80447e-09 -225.31 142.01 2.39825e-09 -197.275 113.535 1.99206e-09 -169.203 85.0959 1.58589e-09 -141.094 56.694 1.1797e-09 -112.948 28.3287 7.73506e-10 -84.7662 -7.52129e-09 3.6733e-10 -56.5474 -28.292 -3.88605e-11 -28.292 -56.5474 -4.06764e-10 -1.19086e-08 -84.7662 -7.36402e-10 28.3287 -112.948 -1.06606e-09 56.694 -141.094 -1.39564e-09 85.0959 -169.203 -1.72534e-09 113.535 -197.275 -2.05491e-09 142.01 -225.31 -2.3846e-09 170.522 -253.309 -2.71426e-09 199.07 -281.272 -3.04376e-09 227.655 -309.197 -3.37348e-09 256.277 -337.086 -3.70313e-09 284.936 -364.939 -4.0327e-09 313.631 -392.754 -4.36228e-09 342.362 -420.533 -4.69184e-09 371.131 -448.276 -5.02157e-09 -422.915 397.2 5.56336e-09 -394.806 368.749 5.1697e-09 -366.685 340.31 4.77568e-09 -338.552 311.884 4.38168e-09 -310.406 283.47 3.98795e-09 -282.249 255.068 3.59405e-09 -254.079 226.678 3.2001e-09 -225.897 198.301 2.80631e-09 -197.702 169.935 2.41242e-09 -169.496 141.582 2.01846e-09 -141.277 113.241 1.62462e-09 -113.046 84.9127 1.23069e-09 -84.8028 56.5963 8.36813e-10 -56.5474 28.292 4.42946e-10 -28.2798 -7.52373e-09 4.90391e-11 -1.18343e-08 -28.2798 -3.07183e-10 28.292 -56.5474 -6.25765e-10 56.5963 -84.8028 -9.44302e-10 84.9127 -113.046 -1.26287e-09 113.241 -141.277 -1.58149e-09 141.582 -169.496 -1.90005e-09 169.935 -197.702 -2.21861e-09 198.301 -225.897 -2.53723e-09 226.678 -254.079 -2.85574e-09 255.068 -282.249 -3.1744e-09 283.47 -310.406 -3.4929e-09 311.884 -338.552 -3.81129e-09 340.31 -366.685 -4.12997e-09 368.749 -394.806 -4.44864e-09 397.2 -422.915 -4.76703e-09 -397.2 422.915 5.74082e-09 -368.749 394.806 5.34309e-09 -340.31 366.685 4.94548e-09 -311.884 338.552 4.54782e-09 -283.47 310.406 4.15e-09 -255.068 282.249 3.75239e-09 -226.678 254.079 3.35483e-09 -198.301 225.897 2.95711e-09 -169.935 197.702 2.5594e-09 -141.582 169.496 2.16173e-09 -113.241 141.277 1.76403e-09 -84.9127 113.046 1.36636e-09 -56.5963 84.8028 9.68637e-10 -28.292 56.5474 5.70967e-10 -1.17409e-08 28.2798 1.7328e-10 28.2798 -7.53603e-09 -1.83856e-10 56.5474 -28.292 -5.00447e-10 84.8028 -56.5963 -8.17052e-10 113.046 -84.9127 -1.13367e-09 141.277 -113.241 -1.45026e-09 169.496 -141.582 -1.76685e-09 197.702 -169.935 -2.08338e-09 225.897 -198.301 -2.40006e-09 254.079 -226.678 -2.71661e-09 282.249 -255.068 -3.03323e-09 310.406 -283.47 -3.34991e-09 338.552 -311.884 -3.66652e-09 366.685 -340.31 -3.98309e-09 394.806 -368.749 -4.29958e-09 422.915 -397.2 -4.61615e-09 -371.131 448.276 6.17997e-09 -342.362 420.533 5.76249e-09 -313.631 392.754 5.34481e-09 -284.936 364.939 4.92726e-09 -256.277 337.086 4.50959e-09 -227.655 309.197 4.09207e-09 -199.07 281.272 3.67452e-09 -170.522 253.309 3.25688e-09 -142.01 225.31 2.83934e-09 -113.535 197.275 2.42176e-09 -85.0959 169.203 2.00416e-09 -56.694 141.094 1.5866e-09 -28.3287 112.948 1.16903e-09 -1.16326e-08 84.7662 7.51456e-10 28.292 56.5474 3.33863e-10 56.5474 28.292 -3.67715e-11 84.7662 -7.55637e-09 -3.60481e-10 112.948 -28.3287 -6.84185e-10 141.094 -56.694 -1.00792e-09 169.203 -85.0959 -1.33154e-09 197.275 -113.535 -1.65536e-09 225.31 -142.01 -1.97905e-09 253.309 -170.522 -2.30281e-09 281.272 -199.07 -2.62654e-09 309.197 -227.655 -2.95017e-09 337.086 -256.277 -3.27381e-09 364.939 -284.936 -3.59766e-09 392.754 -313.631 -3.92134e-09 420.533 -342.362 -4.24514e-09 448.276 -371.131 -4.56875e-09 -344.707 473.282 6.61905e-09 -315.646 445.931 6.18159e-09 -286.645 418.518 5.74419e-09 -257.706 391.044 5.30671e-09 -228.828 363.51 4.86906e-09 -200.011 335.914 4.43167e-09 -171.254 308.257 3.99422e-09 -142.559 280.539 3.55675e-09 -113.925 252.76 3.11925e-09 -85.3524 224.92 2.6818e-09 -56.8405 197.018 2.24433e-09 -28.3897 169.056 1.80688e-09 -1.15054e-08 141.033 1.36943e-09 28.3287 112.948 9.31962e-10 56.5963 84.8028 4.94438e-10 84.8028 56.5963 1.10314e-10 112.948 28.3287 -2.20535e-10 141.033 -7.55631e-09 -5.51324e-10 169.056 -28.3897 -8.8216e-10 197.018 -56.8405 -1.21299e-09 224.92 -85.3524 -1.54382e-09 252.76 -113.925 -1.87465e-09 280.539 -142.559 -2.20541e-09 308.257 -171.254 -2.53631e-09 335.914 -200.011 -2.8671e-09 363.51 -228.828 -3.19787e-09 391.044 -257.706 -3.52873e-09 418.518 -286.645 -3.85967e-09 445.931 -315.646 -4.19041e-09 473.282 -344.707 -4.52133e-09 -317.93 497.935 7.05819e-09 -288.6 470.998 6.60076e-09 -259.355 443.977 6.14344e-09 -230.196 416.869 5.68613e-09 -201.122 389.676 5.22871e-09 -172.134 362.398 4.77132e-09 -143.231 335.034 4.31396e-09 -114.414 307.585 3.85661e-09 -85.6822 280.05 3.39928e-09 -57.036 252.43 2.94189e-09 -28.4752 224.724 2.48453e-09 -1.13757e-08 196.933 2.02716e-09 28.3897 169.056 1.56977e-09 56.694 141.094 1.1124e-09 84.9127 113.046 6.55064e-10 113.046 84.9127 2.57419e-10 141.094 56.694 -8.05329e-11 169.056 28.3897 -4.18467e-10 196.933 -7.54432e-09 -7.56444e-10 224.724 -28.4752 -1.09435e-09 252.43 -57.036 -1.43233e-09 280.05 -85.6822 -1.77023e-09 307.585 -114.414 -2.10821e-09 335.034 -143.231 -2.44609e-09 362.398 -172.134 -2.78411e-09 389.676 -201.122 -3.12198e-09 416.869 -230.196 -3.45997e-09 443.977 -259.355 -3.79788e-09 470.998 -288.6 -4.13593e-09 497.935 -317.93 -4.47392e-09 -290.798 522.233 7.49725e-09 -261.224 495.736 7.01999e-09 -231.759 469.13 6.54269e-09 -202.404 442.413 6.0655e-09 -173.16 415.587 5.58818e-09 -144.025 388.651 5.11093e-09 -115 361.604 4.63372e-09 -86.0852 334.448 4.15645e-09 -57.2802 307.182 3.67918e-09 -28.5852 279.806 3.20193e-09 -1.12607e-08 252.32 2.72468e-09 28.4752 224.724 2.24742e-09 56.8405 197.018 1.77019e-09 85.0959 169.203 1.29293e-09 113.241 141.277 8.15675e-10 141.277 113.241 4.04462e-10 169.203 85.0959 5.93801e-11 197.018 56.8405 -2.85624e-10 224.724 28.4752 -6.30678e-10 252.32 -7.52925e-09 -9.75731e-10 279.806 -28.5852 -1.32081e-09 307.182 -57.2802 -1.66585e-09 334.448 -86.0852 -2.01098e-09 361.604 -115 -2.35596e-09 388.651 -144.025 -2.70109e-09 415.587 -173.16 -3.04613e-09 442.413 -202.404 -3.39116e-09 469.13 -231.759 -3.73598e-09 495.736 -261.224 -4.08107e-09 522.233 -290.798 -4.42634e-09 -263.312 546.177 7.93625e-09 -233.518 520.145 7.43916e-09 -203.858 493.978 6.94195e-09 -174.332 467.676 6.44497e-09 -144.941 441.241 5.94774e-09 -115.684 414.671 5.45057e-09 -86.5615 387.967 4.95342e-09 -57.5734 361.128 4.45627e-09 -28.7195 334.155 3.95912e-09 -1.11765e-08 307.048 3.46199e-09 28.5852 279.806 2.96484e-09 57.036 252.43 2.46763e-09 85.3524 224.92 1.97053e-09 113.535 197.275 1.47335e-09 141.582 169.496 9.76257e-10 169.496 141.582 5.51571e-10 197.275 113.535 1.99464e-10 224.92 85.3524 -1.52767e-10 252.43 57.036 -5.04912e-10 279.806 28.5852 -8.5717e-10 307.048 -7.51902e-09 -1.20929e-09 334.155 -28.7195 -1.56143e-09 361.128 -57.5734 -1.91363e-09 387.967 -86.5615 -2.26589e-09 414.671 -115.684 -2.61798e-09 441.241 -144.941 -2.97001e-09 467.676 -174.332 -3.32238e-09 493.978 -203.858 -3.67442e-09 520.145 -233.518 -4.02667e-09 546.177 -263.312 -4.37876e-09 -235.472 569.767 8.37531e-09 -205.482 544.223 7.85835e-09 -175.651 518.52 7.34134e-09 -145.979 492.659 6.82438e-09 -116.466 466.638 6.30718e-09 -87.1111 440.459 5.79024e-09 -57.9153 414.121 5.27311e-09 -28.8783 387.625 4.75615e-09 -1.1141e-08 360.969 4.2391e-09 28.7195 334.155 3.72205e-09 57.2802 307.182 3.20503e-09 85.6822 280.05 2.68798e-09 113.925 252.76 2.17094e-09 142.01 225.31 1.65389e-09 169.935 197.702 1.13681e-09 197.702 169.935 6.98652e-10 225.31 142.01 3.39412e-10 252.76 113.925 -1.99236e-11 280.05 85.6822 -3.79174e-10 307.182 57.2802 -7.38481e-10 334.155 28.7195 -1.09776e-09 360.969 -7.52186e-09 -1.45704e-09 387.625 -28.8783 -1.81626e-09 414.121 -57.9153 -2.17557e-09 440.459 -87.1111 -2.53493e-09 466.638 -116.466 -2.8943e-09 492.659 -145.979 -3.25355e-09 518.52 -175.651 -3.61268e-09 544.223 -205.482 -3.97205e-09 569.767 -235.472 -4.33135e-09 -207.278 593.003 8.81437e-09 -177.117 567.972 8.27765e-09 -147.139 542.757 7.74075e-09 -117.345 517.36 7.20362e-09 -87.734 491.779 6.66677e-09 -58.3062 466.015 6.12982e-09 -29.0615 440.068 5.59285e-09 -1.11697e-08 413.938 5.05599e-09 28.8783 387.625 4.51905e-09 57.5734 361.128 3.98214e-09 86.0852 334.448 3.44511e-09 114.414 307.585 2.90822e-09 142.559 280.539 2.37128e-09 170.522 253.309 1.83434e-09 198.301 225.897 1.29751e-09 225.897 198.301 8.45837e-10 253.309 170.522 4.79332e-10 280.539 142.559 1.12891e-10 307.585 114.414 -2.53436e-10 334.448 86.0852 -6.19849e-10 361.128 57.5734 -9.86233e-10 387.625 28.8783 -1.35259e-09 413.938 -7.54608e-09 -1.71906e-09 440.068 -29.0615 -2.08541e-09 466.015 -58.3062 -2.45183e-09 491.779 -87.734 -2.81824e-09 517.36 -117.345 -3.18465e-09 542.757 -147.139 -3.55112e-09 567.972 -177.117 -3.91731e-09 593.003 -207.278 -4.28395e-09 -178.729 615.884 9.25365e-09 -148.422 591.391 8.69671e-09 -118.322 566.689 8.13987e-09 -88.4302 541.78 7.58295e-09 -58.7458 516.664 7.02616e-09 -29.2691 491.34 6.46945e-09 -1.12819e-08 465.808 5.91257e-09 29.0615 440.068 5.35587e-09 57.9153 414.121 4.79898e-09 86.5615 387.967 4.24211e-09 115 361.604 3.68533e-09 143.231 335.034 3.12849e-09 171.254 308.257 2.57165e-09 199.07 281.272 2.01481e-09 226.678 254.079 1.45803e-09 254.079 226.678 9.9287e-10 281.272 199.07 6.1938e-10 308.257 171.254 2.45862e-10 335.034 143.231 -1.27699e-10 361.604 115 -5.01188e-10 387.967 86.5615 -8.74707e-10 414.121 57.9153 -1.24828e-09 440.068 29.0615 -1.6218e-09 465.808 -7.60065e-09 -1.99537e-09 491.34 -29.2691 -2.36889e-09 516.664 -58.7458 -2.7423e-09 541.78 -88.4302 -3.11582e-09 566.689 -118.322 -3.48928e-09 591.391 -148.422 -3.86274e-09 615.884 -178.729 -4.23643e-09 -149.826 638.412 9.69271e-09 -119.397 614.48 9.11588e-09 -89.1996 590.316 8.5395e-09 -59.2344 565.92 7.96257e-09 -29.5012 541.292 7.38571e-09 -1.14911e-08 516.432 6.80922e-09 29.2691 491.34 6.23231e-09 58.3062 466.015 5.65572e-09 87.1111 440.459 5.07896e-09 115.684 414.671 4.50225e-09 144.025 388.651 3.92549e-09 172.134 362.398 3.34876e-09 200.011 335.914 2.77208e-09 227.655 309.197 2.19529e-09 255.068 282.249 1.61867e-09 282.249 255.068 1.13986e-09 309.197 227.655 7.59243e-10 335.914 200.011 3.78634e-10 362.398 172.134 -1.9611e-12 388.651 144.025 -3.82585e-10 414.671 115.684 -7.63237e-10 440.459 87.1111 -1.14386e-09 466.015 58.3062 -1.52443e-09 491.34 29.2691 -1.90511e-09 516.432 -7.69296e-09 -2.28579e-09 541.292 -29.5012 -2.6663e-09 565.92 -59.2344 -3.04715e-09 590.316 -89.1996 -3.42789e-09 614.48 -119.397 -3.8084e-09 638.412 -149.826 -4.18891e-09 -120.569 660.585 1.01319e-08 -90.0424 637.239 9.53528e-09 -59.7718 613.637 8.93856e-09 -29.7576 589.778 8.34208e-09 -1.18161e-08 565.663 7.74541e-09 29.5012 541.292 7.14866e-09 58.7458 516.664 6.55214e-09 87.734 491.779 5.95554e-09 116.466 466.638 5.35886e-09 144.941 441.241 4.76223e-09 173.16 415.587 4.16566e-09 201.122 389.676 3.56903e-09 228.828 363.51 2.9724e-09 256.277 337.086 2.37588e-09 283.47 310.406 1.77914e-09 310.406 283.47 1.28712e-09 337.086 256.277 8.9922e-10 363.51 228.828 5.11534e-10 389.676 201.122 1.23777e-10 415.587 173.16 -2.63924e-10 441.241 144.941 -6.5171e-10 466.638 116.466 -1.03944e-09 491.779 87.734 -1.42717e-09 516.664 58.7458 -1.81484e-09 541.292 29.5012 -2.20246e-09 565.663 -7.83325e-09 -2.59058e-09 589.778 -29.7576 -2.97825e-09 613.637 -59.7718 -3.36581e-09 637.239 -90.0424 -3.7536e-09 660.585 -120.569 -4.14138e-09 -90.9584 682.404 1.05708e-08 -60.358 659.669 9.95423e-09 -30.0385 636.653 9.33787e-09 -1.22732e-08 613.356 8.7214e-09 29.7576 589.778 8.10485e-09 59.2344 565.92 7.48838e-09 88.4302 541.78 6.87186e-09 117.345 517.36 6.25539e-09 145.979 492.659 5.63887e-09 174.332 467.676 5.0224e-09 202.404 442.413 4.40582e-09 230.196 416.869 3.78924e-09 257.706 391.044 3.17283e-09 284.936 364.939 2.55625e-09 311.884 338.552 1.93978e-09 338.552 311.884 1.43416e-09 364.939 284.936 1.03931e-09 391.044 257.706 6.44377e-10 416.869 230.196 2.49599e-10 442.413 202.404 -1.45349e-10 467.676 174.332 -5.40183e-10 492.659 145.979 -9.35017e-10 517.36 117.345 -1.32997e-09 541.78 88.4302 -1.72497e-09 565.92 59.2344 -2.11958e-09 589.778 29.7576 -2.51441e-09 613.356 -8.02697e-09 -2.90947e-09 636.653 -30.0385 -3.30419e-09 659.669 -60.358 -3.69903e-09 682.404 -90.9584 -4.09398e-09 -60.9931 703.868 1.10099e-08 -30.3439 681.768 1.03735e-08 -1.288e-08 659.363 9.73704e-09 30.0385 636.653 9.10092e-09 59.7718 613.637 8.4645e-09 89.1996 590.316 7.82796e-09 118.322 566.689 7.19146e-09 147.139 542.757 6.55507e-09 175.651 518.52 5.91871e-09 203.858 493.978 5.28246e-09 231.759 469.13 4.6461e-09 259.355 443.977 4.00956e-09 286.645 418.518 3.3732e-09 313.631 392.754 2.73667e-09 340.31 366.685 2.10036e-09 366.685 340.31 1.58119e-09 392.754 313.631 1.17922e-09 418.518 286.645 7.77334e-10 443.977 259.355 3.75252e-10 469.13 231.759 -2.67733e-11 493.978 203.858 -4.28713e-10 518.52 175.651 -8.30653e-10 542.757 147.139 -1.23248e-09 566.689 118.322 -1.6347e-09 590.316 89.1996 -2.03636e-09 613.637 59.7718 -2.43858e-09 636.653 30.0385 -2.84058e-09 659.363 -8.28459e-09 -3.24246e-09 681.768 -30.3439 -3.64446e-09 703.868 -60.9931 -4.04657e-09 -30.6736 724.979 1.14487e-08 -1.36523e-08 703.539 1.07927e-08 30.3439 681.768 1.01366e-08 60.358 659.669 9.48032e-09 90.0424 637.239 8.82378e-09 119.397 614.48 8.1676e-09 148.422 591.391 7.51126e-09 177.117 567.972 6.85515e-09 205.482 544.223 6.19877e-09 233.518 520.145 5.54257e-09 261.224 495.736 4.88615e-09 288.6 470.998 4.22978e-09 315.646 445.931 3.57358e-09 342.362 420.533 2.91709e-09 368.749 394.806 2.26089e-09 394.806 368.749 1.7283e-09 420.533 342.362 1.31918e-09 445.931 315.646 9.1012e-10 470.998 288.6 5.01075e-10 495.736 261.224 9.18021e-11 520.145 233.518 -3.17186e-10 544.223 205.482 -7.26288e-10 567.972 177.117 -1.1355e-09 591.391 148.422 -1.54432e-09 614.48 119.397 -1.95371e-09 637.239 90.0424 -2.36275e-09 659.669 60.358 -2.77169e-09 681.768 30.3439 -3.18073e-09 703.539 -8.61382e-09 -3.58966e-09 724.979 -30.6736 -3.99882e-09 -1.46074e-08 745.735 1.1888e-08 30.6736 724.979 1.1212e-08 60.9931 703.868 1.05359e-08 90.9584 682.404 9.85962e-09 120.569 660.585 9.18357e-09 149.826 638.412 8.50724e-09 178.729 615.884 7.83089e-09 207.278 593.003 7.15494e-09 235.472 569.767 6.47867e-09 263.312 546.177 5.80252e-09 290.798 522.233 5.12631e-09 317.93 497.935 4.4501e-09 344.707 473.282 3.77389e-09 371.131 448.276 3.09774e-09 397.2 422.915 2.42142e-09 422.915 397.2 1.87528e-09 448.276 371.131 1.45917e-09 473.282 344.707 1.04291e-09 497.935 317.93 6.26756e-10 522.233 290.798 2.10605e-10 546.177 263.312 -2.05659e-10 569.767 235.472 -6.21981e-10 593.003 207.278 -1.03807e-09 615.884 178.729 -1.45417e-09 638.412 149.826 -1.87038e-09 660.585 120.569 -2.2867e-09 682.404 90.9584 -2.70302e-09 703.868 60.9931 -3.11911e-09 724.979 30.6736 -3.53543e-09 745.735 -9.02264e-09 -3.95153e-09 -574.87 -7.63521e-09 4.18311e-09 -559.154 -23.9306 3.7833e-09 -543.145 -47.5678 3.38314e-09 -526.843 -70.9117 2.98344e-09 -510.247 -93.9621 2.58333e-09 -493.358 -116.719 2.18317e-09 -476.176 -139.183 1.78343e-09 -458.7 -161.353 1.38326e-09 -440.93 -183.23 9.83277e-10 -422.868 -204.813 5.83213e-10 -404.511 -226.103 1.83178e-10 -385.862 -247.1 -2.16687e-10 -366.919 -267.803 -6.16637e-10 -347.683 -288.213 -1.01682e-09 -328.153 -308.33 -1.41665e-09 -308.33 -328.153 -1.83844e-09 -288.213 -347.683 -2.28218e-09 -267.803 -366.919 -2.72578e-09 -247.1 -385.862 -3.16939e-09 -226.103 -404.511 -3.61291e-09 -204.813 -422.868 -4.0566e-09 -183.23 -440.93 -4.50012e-09 -161.353 -458.7 -4.94384e-09 -139.183 -476.176 -5.38739e-09 -116.719 -493.358 -5.83094e-09 -93.9621 -510.247 -6.27472e-09 -70.9117 -526.843 -6.71821e-09 -47.5678 -543.145 -7.16204e-09 -23.9306 -559.154 -7.60531e-09 -1.09635e-08 -574.87 -8.04903e-09 -559.154 23.9306 4.37567e-09 -542.872 -7.58291e-09 3.97096e-09 -526.317 -23.6575 3.56618e-09 -509.488 -47.0418 3.16122e-09 -492.387 -70.1529 2.75662e-09 -475.012 -92.9909 2.35174e-09 -457.364 -115.556 1.94705e-09 -439.443 -137.847 1.5423e-09 -421.249 -159.866 1.13754e-09 -402.781 -181.611 7.32838e-10 -384.041 -203.083 3.27963e-10 -365.027 -224.282 -7.67701e-11 -345.74 -245.208 -4.81589e-10 -326.18 -265.861 -8.86265e-10 -306.347 -286.24 -1.29111e-09 -286.24 -306.347 -1.71606e-09 -265.861 -326.18 -2.16107e-09 -245.208 -345.74 -2.60609e-09 -224.282 -365.027 -3.05114e-09 -203.083 -384.041 -3.49617e-09 -181.611 -402.781 -3.94128e-09 -159.866 -421.249 -4.38627e-09 -137.847 -439.443 -4.83146e-09 -115.556 -457.364 -5.27645e-09 -92.9909 -475.012 -5.7215e-09 -70.1529 -492.387 -6.16644e-09 -47.0418 -509.488 -6.61149e-09 -23.6575 -526.317 -7.05665e-09 -1.09043e-08 -542.872 -7.50187e-09 23.9306 -559.154 -7.94697e-09 -543.145 47.5678 4.56834e-09 -526.317 23.6575 4.15871e-09 -509.236 -7.53315e-09 3.74902e-09 -491.901 -23.4045 3.33946e-09 -474.314 -46.5561 2.93004e-09 -456.474 -69.4548 2.52066e-09 -438.381 -92.1006 2.11098e-09 -420.035 -114.493 1.70127e-09 -401.436 -136.633 1.29181e-09 -382.584 -158.52 8.82265e-10 -363.479 -180.154 4.72748e-10 -344.121 -201.535 6.31469e-11 -324.511 -222.664 -3.46341e-10 -304.647 -243.539 -7.55829e-10 -284.531 -264.161 -1.16534e-09 -264.161 -284.531 -1.59347e-09 -243.539 -304.647 -2.03998e-09 -222.664 -324.511 -2.48643e-09 -201.535 -344.121 -2.93292e-09 -180.154 -363.479 -3.37949e-09 -158.52 -382.584 -3.82601e-09 -136.633 -401.436 -4.27256e-09 -114.493 -420.035 -4.71914e-09 -92.1006 -438.381 -5.16551e-09 -69.4548 -456.474 -5.61212e-09 -46.5561 -474.314 -6.05867e-09 -23.4045 -491.901 -6.50499e-09 -1.08586e-08 -509.236 -6.95165e-09 23.6575 -526.317 -7.3982e-09 47.5678 -543.145 -7.84475e-09 -526.843 70.9117 4.7605e-09 -509.488 47.0418 4.34625e-09 -491.901 23.4045 3.93195e-09 -474.081 -7.48491e-09 3.51758e-09 -456.029 -23.1718 3.1035e-09 -437.743 -46.111 2.68904e-09 -419.225 -68.8174 2.27474e-09 -400.475 -91.2912 1.86032e-09 -381.491 -113.532 1.44619e-09 -362.275 -135.541 1.03178e-09 -342.826 -157.316 6.17477e-10 -323.145 -178.859 2.03178e-10 -303.231 -200.17 -2.11207e-10 -283.084 -221.247 -6.25421e-10 -262.704 -242.092 -1.03969e-09 -242.092 -262.704 -1.47088e-09 -221.247 -283.084 -1.91881e-09 -200.17 -303.231 -2.36682e-09 -178.859 -323.145 -2.81481e