<?xml version="1.0"?> 
<VTKFile type="StructuredGrid" version="0.1"> 
<StructuredGrid WholeExtent="0 29 0 29 0 29"> 
<Piece Extent="0 29 0 29 0 29"> 
<PointData>
<DataArray type="Float32" Name="hfield" format="ascii" NumberOfComponents="3"> 
706.598 -2.62935e-09 -7.80537e-09 687.013 29.1452 -7.14502e-09 667.085 57.949 -6.48467e-09 646.817 86.4114 -5.82444e-09 626.207 114.532 -5.16414e-09 605.256 142.312 -4.5038e-09 583.963 169.75 -3.84344e-09 562.329 196.847 -3.18314e-09 540.353 223.602 -2.52282e-09 518.036 250.016 -1.86252e-09 495.378 276.089 -1.20218e-09 472.378 301.82 -5.41874e-10 449.037 327.209 1.18447e-10 425.354 352.258 7.78755e-10 401.33 376.965 1.43909e-09 376.965 401.33 2.12619e-09 352.258 425.354 2.84006e-09 327.209 449.037 3.55398e-09 301.82 472.378 4.26785e-09 276.089 495.378 4.98174e-09 250.016 518.036 5.69565e-09 223.602 540.353 6.40955e-09 196.847 562.329 7.12343e-09 169.75 583.963 7.83731e-09 142.312 605.256 8.55124e-09 114.532 626.207 9.26511e-09 86.4114 646.817 9.97898e-09 57.949 667.085 1.06929e-08 29.1452 687.013 1.14068e-08 -4.6889e-09 706.598 1.21207e-08 687.013 -29.1452 -7.92282e-09 666.768 -2.70397e-09 -7.26414e-09 646.205 28.8273 -6.60542e-09 625.324 57.3368 -5.94674e-09 604.125 85.5284 -5.28802e-09 582.609 113.402 -4.62931e-09 560.775 140.958 -3.97062e-09 538.623 168.196 -3.3119e-09 516.152 195.116 -2.65321e-09 493.365 221.719 -1.9945e-09 470.259 248.003 -1.33578e-09 446.835 273.969 -6.77077e-10 423.094 299.618 -1.83746e-11 399.034 324.949 6.40328e-10 374.657 349.962 1.29902e-09 349.962 374.657 1.98361e-09 324.949 399.034 2.69409e-09 299.618 423.094 3.40459e-09 273.969 446.835 4.11505e-09 248.003 470.259 4.82553e-09 221.719 493.365 5.536e-09 195.116 516.152 6.24651e-09 168.196 538.623 6.957e-09 140.958 560.775 7.66746e-09 113.402 582.609 8.37794e-09 85.5284 604.125 9.08841e-09 57.3368 625.324 9.79893e-09 28.8273 646.205 1.05094e-08 -4.96277e-09 666.768 1.12199e-08 -29.1452 687.013 1.19304e-08 667.085 -57.949 -8.04031e-09 646.205 -28.8273 -7.38328e-09 625.03 -2.77712e-09 -6.72611e-09 603.56 28.533 -6.06902e-09 581.797 56.7717 -5.41198e-09 559.739 84.7161 -4.75485e-09 537.386 112.366 -4.09776e-09 514.74 139.722 -3.44067e-09 491.799 166.783 -2.78358e-09 468.564 193.55 -2.12648e-09 445.034 220.023 -1.4694e-09 421.21 246.202 -8.12309e-10 397.092 272.086 -1.55225e-10 372.679 297.676 5.01873e-10 347.972 322.971 1.15897e-09 322.971 347.972 1.84104e-09 297.676 372.679 2.54813e-09 272.086 397.092 3.25519e-09 246.202 421.21 3.96223e-09 220.023 445.034 4.66932e-09 193.55 468.564 5.3764e-09 166.783 491.799 6.08346e-09 139.722 514.74 6.79055e-09 112.366 537.386 7.4976e-09 84.7161 559.739 8.2047e-09 56.7717 581.797 8.91176e-09 28.533 603.56 9.61882e-09 -5.21047e-09 625.03 1.03259e-08 -28.8273 646.205 1.10329e-08 -57.949 667.085 1.174e-08 646.817 -86.4114 -8.15776e-09 625.324 -57.3368 -7.50228e-09 603.56 -28.533 -6.8468e-09 581.526 -2.84869e-09 -6.19136e-09 559.221 28.2622 -5.53587e-09 536.645 56.2537 -4.8804e-09 513.798 83.9744 -4.22492e-09 490.68 111.424 -3.56942e-09 467.292 138.604 -2.91397e-09 443.633 165.512 -2.25846e-09 419.703 192.149 -1.603e-09 395.502 218.516 -9.47527e-10 371.031 244.612 -2.92061e-10 346.289 270.438 3.63418e-10 321.276 295.992 1.01888e-09 295.992 321.276 1.69845e-09 270.438 346.289 2.40213e-09 244.612 371.031 3.10578e-09 218.516 395.502 3.80945e-09 192.149 419.703 4.5131e-09 165.512 443.633 5.21676e-09 138.604 467.292 5.92041e-09 111.424 490.68 6.62409e-09 83.9744 513.798 7.32772e-09 56.2537 536.645 8.03139e-09 28.2622 559.221 8.73505e-09 -5.43176e-09 581.526 9.43872e-09 -28.533 603.56 1.01424e-08 -57.3368 625.324 1.0846e-08 -86.4114 646.817 1.15497e-08 626.207 -114.532 -8.27522e-09 604.125 -85.5284 -7.62136e-09 581.797 -56.7717 -6.96748e-09 559.221 -28.2622 -6.31363e-09 536.397 -2.91918e-09 -5.65977e-09 513.327 28.015 -5.00593e-09 490.009 55.7828 -4.35205e-09 466.444 83.3034 -3.69816e-09 442.632 110.577 -3.04434e-09 418.573 137.603 -2.39048e-09 394.266 164.382 -1.73661e-09 369.712 190.913 -1.08276e-09 344.911 217.198 -4.28883e-10 319.863 243.235 2.24978e-10 294.568 269.025 8.78853e-10 269.025 294.568 1.5559e-09 243.235 319.863 2.25613e-09 217.198 344.911 2.95639e-09 190.913 369.712 3.65664e-09 164.382 394.266 4.35687e-09 137.603 418.573 5.05712e-09 110.577 442.632 5.75737e-09 83.3034 466.444 6.45762e-09 55.7828 490.009 7.15786e-09 28.015 513.327 7.85809e-09 -5.62915e-09 536.397 8.55834e-09 -28.2622 559.221 9.25861e-09 -56.7717 581.797 9.95884e-09 -85.5284 604.125 1.06591e-08 -114.532 626.207 1.13593e-08 605.256 -142.312 -8.3927e-09 582.609 -113.402 -7.74047e-09 559.739 -84.7161 -7.08817e-09 536.645 -56.2537 -6.43595e-09 513.327 -28.015 -5.78373e-09 489.786 -2.9886e-09 -5.13144e-09 466.021 27.7913 -4.47922e-09 442.032 55.359 -3.82696e-09 417.819 82.703 -3.17471e-09 393.383 109.823 -2.52246e-09 368.724 136.72 -1.87023e-09 343.84 163.393 -1.21796e-09 318.733 189.842 -5.65734e-10 293.402 216.068 8.65369e-11 267.848 242.069 7.38779e-10 242.069 267.848 1.41332e-09 216.068 293.402 2.11014e-09 189.842 318.733 2.80699e-09 163.393 343.84 3.50382e-09 136.72 368.724 4.20065e-09 109.823 393.383 4.89749e-09 82.703 417.819 5.59434e-09 55.359 442.032 6.29116e-09 27.7913 466.021 6.988e-09 -5.80309e-09 489.786 7.68485e-09 -28.015 513.327 8.38168e-09 -56.2537 536.645 9.07852e-09 -84.7161 559.739 9.77532e-09 -113.402 582.609 1.04722e-08 -142.312 605.256 1.1169e-08 583.963 -169.75 -8.51015e-09 560.775 -140.958 -7.85951e-09 537.386 -112.366 -7.20889e-09 513.798 -83.9744 -6.55827e-09 490.009 -55.7828 -5.90765e-09 466.021 -27.7913 -5.25699e-09 441.832 -3.05732e-09 -4.60635e-09 417.443 27.5912 -3.95572e-09 392.854 54.9823 -3.30508e-09 368.064 82.1732 -2.65446e-09 343.075 109.164 -2.00382e-09 317.885 135.955 -1.35318e-09 292.496 162.545 -7.02556e-10 266.906 188.936 -5.19322e-11 241.116 215.126 5.98713e-10 215.126 241.116 1.27074e-09 188.936 266.906 1.96417e-09 162.545 292.496 2.65759e-09 135.955 317.885 3.35101e-09 109.164 343.075 4.04444e-09 82.1732 368.064 4.73785e-09 54.9823 392.854 5.43128e-09 27.5912 417.443 6.1247e-09 -5.95497e-09 441.832 6.81813e-09 -27.7913 466.021 7.51155e-09 -55.7828 490.009 8.20497e-09 -83.9744 513.798 8.89841e-09 -112.366 537.386 9.59185e-09 -140.958 560.775 1.02852e-08 -169.75 583.963 1.09787e-08 562.329 -196.847 -8.62766e-09 538.623 -168.196 -7.97861e-09 514.74 -139.722 -7.32957e-09 490.68 -111.424 -6.68057e-09 466.444 -83.3034 -6.03157e-09 442.032 -55.359 -5.38253e-09 417.443 -27.5912 -4.73352e-09 392.677 -3.12565e-09 -4.08448e-09 367.735 27.4146 -3.43548e-09 342.616 54.6526 -2.78646e-09 317.32 81.714 -2.13742e-09 291.848 108.599 -1.48841e-09 266.199 135.307 -8.39385e-10 240.374 161.839 -1.90366e-10 214.372 188.194 4.58653e-10 188.194 214.372 1.12817e-09 161.839 240.374 1.81818e-09 135.307 266.199 2.50819e-09 108.599 291.848 3.1982e-09 81.714 317.32 3.88822e-09 54.6526 342.616 4.57825e-09 27.4146 367.735 5.26824e-09 -6.0877e-09 392.677 5.95826e-09 -27.5912 417.443 6.64827e-09 -55.359 442.032 7.33829e-09 -83.3034 466.444 8.0283e-09 -111.424 490.68 8.71831e-09 -139.722 514.74 9.40833e-09 -168.196 538.623 1.00983e-08 -196.847 562.329 1.07884e-08 540.353 -223.602 -8.7451e-09 516.152 -195.116 -8.09768e-09 491.799 -166.783 -7.45027e-09 467.292 -138.604 -6.80286e-09 442.632 -110.577 -6.15547e-09 417.819 -82.703 -5.50805e-09 392.854 -54.9823 -4.86066e-09 367.735 -27.4146 -4.21326e-09 342.463 -3.19295e-09 -3.56586e-09 317.038 27.2616 -2.91844e-09 291.46 54.3701 -2.27104e-09 265.729 81.3255 -1.62364e-09 239.844 108.128 -9.76214e-10 213.807 134.777 -3.28814e-10 187.617 161.274 3.18601e-10 161.274 187.617 9.85597e-10 134.777 213.807 1.6722e-09 108.128 239.844 2.35879e-09 81.3255 265.729 3.0454e-09 54.3701 291.46 3.73199e-09 27.2616 317.038 4.4186e-09 -6.20088e-09 342.463 5.10519e-09 -27.4146 367.735 5.79181e-09 -54.9823 392.854 6.47841e-09 -82.703 417.819 7.16501e-09 -110.577 442.632 7.85159e-09 -138.604 467.292 8.53819e-09 -166.783 491.799 9.22481e-09 -195.116 516.152 9.91142e-09 -223.602 540.353 1.0598e-08 518.036 -250.016 -8.86255e-09 493.365 -221.719 -8.21675e-09 468.564 -193.55 -7.57097e-09 443.633 -165.512 -6.92518e-09 418.573 -137.603 -6.2794e-09 393.383 -109.823 -5.63362e-09 368.064 -82.1732 -4.98781e-09 342.616 -54.6526 -4.34201e-09 317.038 -27.2616 -3.69623e-09 291.33 -3.26008e-09 -3.05043e-09 265.493 27.1321 -2.40464e-09 239.527 54.1346 -1.75885e-09 213.43 81.0077 -1.11304e-09 187.205 107.751 -4.67262e-10 160.85 134.365 1.78534e-10 134.365 160.85 8.43021e-10 107.751 187.205 1.5262e-09 81.0077 213.43 2.2094e-09 54.1346 239.527 2.89259e-09 27.1321 265.493 3.57578e-09 -6.2962e-09 291.33 4.25896e-09 -27.2616 317.038 4.94217e-09 -54.6526 342.616 5.62534e-09 -82.1732 368.064 6.30853e-09 -109.823 393.383 6.99174e-09 -137.603 418.573 7.67492e-09 -165.512 443.633 8.35811e-09 -193.55 468.564 9.0413e-09 -221.719 493.365 9.72448e-09 -250.016 518.036 1.04077e-08 495.378 -276.089 -8.98003e-09 470.259 -248.003 -8.33584e-09 445.034 -220.023 -7.69167e-09 419.703 -192.149 -7.04749e-09 394.266 -164.382 -6.40332e-09 368.724 -136.72 -5.75914e-09 343.075 -109.164 -5.11496e-09 317.32 -81.714 -4.47077e-09 291.46 -54.3701 -3.8266e-09 265.493 -27.1321 -3.18243e-09 239.421 -3.3275e-09 -2.53824e-09 213.242 27.0261 -1.89406e-09 186.958 53.9463 -1.24989e-09 160.567 80.7605 -6.05713e-10 134.071 107.469 3.84679e-11 107.469 134.071 7.00439e-10 80.7605 160.567 1.38022e-09 53.9463 186.958 2.06e-09 27.0261 213.242 2.73978e-09 -6.37544e-09 239.421 3.41955e-09 -27.1321 265.493 4.09934e-09 -54.3701 291.46 4.77911e-09 -81.714 317.32 5.45889e-09 -109.164 343.075 6.13867e-09 -136.72 368.724 6.81845e-09 -164.382 394.266 7.49822e-09 -192.149 419.703 8.17801e-09 -220.023 445.034 8.85779e-09 -248.003 470.259 9.53756e-09 -276.089 495.378 1.02173e-08 472.378 -301.82 -9.0975e-09 446.835 -273.969 -8.45494e-09 421.21 -246.202 -7.81236e-09 395.502 -218.516 -7.1698e-09 369.712 -190.913 -6.52723e-09 343.84 -163.393 -5.88468e-09 317.885 -135.955 -5.24213e-09 291.848 -108.599 -4.59954e-09 265.729 -81.3255 -3.95699e-09 239.527 -54.1346 -3.31442e-09 213.242 -27.0261 -2.67185e-09 186.875 -3.39469e-09 -2.02929e-09 160.426 26.9437 -1.38672e-09 133.894 53.805 -7.44161e-10 107.28 80.5839 -1.01599e-10 80.5839 107.28 5.57876e-10 53.805 133.894 1.23424e-09 26.9437 160.426 1.9106e-09 -6.43962e-09 186.875 2.58697e-09 -27.0261 213.242 3.26334e-09 -54.1346 239.527 3.9397e-09 -81.3255 265.729 4.61607e-09 -108.599 291.848 5.29244e-09 -135.955 317.885 5.96882e-09 -163.393 343.84 6.64518e-09 -190.913 369.712 7.32153e-09 -218.516 395.502 7.99792e-09 -246.202 421.21 8.67427e-09 -273.969 446.835 9.35062e-09 -301.82 472.378 1.0027e-08 449.037 -327.209 -9.21494e-09 423.094 -299.618 -8.57401e-09 397.092 -272.086 -7.93306e-09 371.031 -244.612 -7.29211e-09 344.911 -217.198 -6.65118e-09 318.733 -189.842 -6.01021e-09 292.496 -162.545 -5.36925e-09 266.199 -135.307 -4.7283e-09 239.844 -108.128 -4.08736e-09 213.43 -81.0077 -3.44641e-09 186.958 -53.9463 -2.80545e-09 160.426 -26.9437 -2.16451e-09 133.836 -3.46222e-09 -1.52356e-09 107.186 26.8848 -8.82605e-10 80.4779 53.7108 -2.41658e-10 53.7108 80.4779 4.15293e-10 26.8848 107.186 1.08825e-09 -6.48973e-09 133.836 1.76121e-09 -26.9437 160.426 2.43416e-09 -53.9463 186.958 3.10711e-09 -81.0077 213.43 3.78008e-09 -108.128 239.844 4.45303e-09 -135.307 266.199 5.12599e-09 -162.545 292.496 5.79893e-09 -189.842 318.733 6.4719e-09 -217.198 344.911 7.14483e-09 -244.612 371.031 7.8178e-09 -272.086 397.092 8.49076e-09 -299.618 423.094 9.16372e-09 -327.209 449.037 9.83666e-09 425.354 -352.258 -9.33243e-09 399.034 -324.949 -8.69309e-09 372.679 -297.676 -8.05376e-09 346.289 -270.438 -7.41443e-09 319.863 -243.235 -6.77508e-09 293.402 -216.068 -6.13574e-09 266.906 -188.936 -5.4964e-09 240.374 -161.839 -4.85708e-09 213.807 -134.777 -4.21772e-09 187.205 -107.751 -3.57839e-09 160.567 -80.7605 -2.93907e-09 133.894 -53.805 -2.29973e-09 107.186 -26.8848 -1.66039e-09 80.4426 -3.53066e-09 -1.02106e-09 53.6637 26.8495 -3.81719e-10 26.8495 53.6637 2.72721e-10 -6.52729e-09 80.4426 9.42265e-10 -26.8848 107.186 1.61181e-09 -53.805 133.894 2.28135e-09 -80.7605 160.567 2.9509e-09 -107.751 187.205 3.62044e-09 -134.777 213.807 4.28997e-09 -161.839 240.374 4.95953e-09 -188.936 266.906 5.62907e-09 -216.068 293.402 6.29861e-09 -243.235 319.863 6.96816e-09 -270.438 346.289 7.6377e-09 -297.676 372.679 8.30725e-09 -324.949 399.034 8.97679e-09 -352.258 425.354 9.64634e-09 401.33 -376.965 -9.44989e-09 374.657 -349.962 -8.81217e-09 347.972 -322.971 -8.17446e-09 321.276 -295.992 -7.53673e-09 294.568 -269.025 -6.89902e-09 267.848 -242.069 -6.26128e-09 241.116 -215.126 -5.62355e-09 214.372 -188.194 -4.98583e-09 187.617 -161.274 -4.34811e-09 160.85 -134.365 -3.71038e-09 134.071 -107.469 -3.07267e-09 107.28 -80.5839 -2.43495e-09 80.4779 -53.7108 -1.79722e-09 53.6637 -26.8495 -1.1595e-09 26.8377 -3.59948e-09 -5.2178e-10 -6.55414e-09 26.8377 1.30147e-10 -26.8495 53.6637 7.9628e-10 -53.7108 80.4779 1.46241e-09 -80.5839 107.28 2.12854e-09 -107.469 134.071 2.79467e-09 -134.365 160.85 3.4608e-09 -161.274 187.617 4.12694e-09 -188.194 214.372 4.79307e-09 -215.126 241.116 5.4592e-09 -242.069 267.848 6.12534e-09 -269.025 294.568 6.79147e-09 -295.992 321.276 7.45758e-09 -322.971 347.972 8.12372e-09 -349.962 374.657 8.78986e-09 -376.965 401.33 9.45599e-09 376.965 -401.33 -9.60203e-09 349.962 -374.657 -8.96294e-09 322.971 -347.972 -8.32386e-09 295.992 -321.276 -7.68475e-09 269.025 -294.568 -7.04567e-09 242.069 -267.848 -6.40659e-09 215.126 -241.116 -5.76749e-09 188.194 -214.372 -5.1284e-09 161.274 -187.617 -4.48932e-09 134.365 -160.85 -3.85023e-09 107.469 -134.071 -3.21113e-09 80.5839 -107.28 -2.57205e-09 53.7108 -80.4779 -1.93296e-09 26.8495 -53.6637 -1.29387e-09 -6.53227e-09 -26.8377 -6.54778e-10 -26.8377 -3.63952e-09 -3.54849e-12 -53.6637 26.8495 6.59824e-10 -80.4779 53.7108 1.32319e-09 -107.28 80.5839 1.98656e-09 -134.071 107.469 2.64992e-09 -160.85 134.365 3.3133e-09 -187.617 161.274 3.97667e-09 -214.372 188.194 4.64004e-09 -241.116 215.126 5.30341e-09 -267.848 242.069 5.96678e-09 -294.568 269.025 6.63014e-09 -321.276 295.992 7.29351e-09 -347.972 322.971 7.95691e-09 -374.657 349.962 8.62025e-09 -401.33 376.965 9.28364e-09 352.258 -425.354 -9.78885e-09 324.949 -399.034 -9.14541e-09 297.676 -372.679 -8.50199e-09 270.438 -346.289 -7.85853e-09 243.235 -319.863 -7.21511e-09 216.068 -293.402 -6.57166e-09 188.936 -266.906 -5.92821e-09 161.839 -240.374 -5.28479e-09 134.777 -213.807 -4.64134e-09 107.751 -187.205 -3.99791e-09 80.7605 -160.567 -3.35447e-09 53.805 -133.894 -2.71103e-09 26.8848 -107.186 -2.06759e-09 -6.46962e-09 -80.4426 -1.42415e-09 -26.8495 -53.6637 -7.80712e-10 -53.6637 -26.8495 -1.28363e-10 -80.4426 -3.64324e-09 5.32891e-10 -107.186 26.8848 1.19415e-09 -133.894 53.805 1.85541e-09 -160.567 80.7605 2.51666e-09 -187.205 107.751 3.17792e-09 -213.807 134.777 3.83918e-09 -240.374 161.839 4.50043e-09 -266.906 188.936 5.16169e-09 -293.402 216.068 5.82295e-09 -319.863 243.235 6.48421e-09 -346.289 270.438 7.14546e-09 -372.679 297.676 7.80675e-09 -399.034 324.949 8.46796e-09 -425.354 352.258 9.12922e-09 327.209 -449.037 -9.97568e-09 299.618 -423.094 -9.32791e-09 272.086 -397.092 -8.6801e-09 244.612 -371.031 -8.03233e-09 217.198 -344.911 -7.38452e-09 189.842 -318.733 -6.73673e-09 162.545 -292.496 -6.08895e-09 135.307 -266.199 -5.44116e-09 108.128 -239.844 -4.79337e-09 81.0077 -213.43 -4.14559e-09 53.9463 -186.958 -3.4978e-09 26.9437 -160.426 -2.85002e-09 -6.40588e-09 -133.836 -2.20222e-09 -26.8848 -107.186 -1.55443e-09 -53.7108 -80.4779 -9.06645e-10 -80.4779 -53.7108 -2.53178e-10 -107.186 -26.8848 4.05965e-10 -133.836 -3.63832e-09 1.06511e-09 -160.426 26.9437 1.72425e-09 -186.958 53.9463 2.3834e-09 -213.43 81.0077 3.04255e-09 -239.844 108.128 3.70168e-09 -266.199 135.307 4.36082e-09 -292.496 162.545 5.01997e-09 -318.733 189.842 5.67912e-09 -344.911 217.198 6.33823e-09 -371.031 244.612 6.9974e-09 -397.092 272.086 7.65656e-09 -423.094 299.618 8.31567e-09 -449.037 327.209 8.97484e-09 301.82 -472.378 -1.01625e-08 273.969 -446.835 -9.51036e-09 246.202 -421.21 -8.85821e-09 218.516 -395.502 -8.20608e-09 190.913 -369.712 -7.55394e-09 163.393 -343.84 -6.90181e-09 135.955 -317.885 -6.24968e-09 108.599 -291.848 -5.59754e-09 81.3255 -265.729 -4.9454e-09 54.1346 -239.527 -4.29327e-09 27.0261 -213.242 -3.64112e-09 -6.33929e-09 -186.875 -2.98899e-09 -26.9437 -160.426 -2.33686e-09 -53.805 -133.894 -1.68472e-09 -80.5839 -107.28 -1.03258e-09 -107.28 -80.5839 -3.78001e-10 -133.894 -53.805 2.79036e-10 -160.426 -26.9437 9.36062e-10 -186.875 -3.62564e-09 1.5931e-09 -213.242 27.0261 2.25013e-09 -239.527 54.1346 2.90716e-09 -265.729 81.3255 3.56419e-09 -291.848 108.599 4.22122e-09 -317.885 135.955 4.87825e-09 -343.84 163.393 5.53528e-09 -369.712 190.913 6.1923e-09 -395.502 218.516 6.84935e-09 -421.21 246.202 7.50637e-09 -446.835 273.969 8.1634e-09 -472.378 301.82 8.82044e-09 276.089 -495.378 -1.03493e-08 248.003 -470.259 -9.69284e-09 220.023 -445.034 -9.03635e-09 192.149 -419.703 -8.37986e-09 164.382 -394.266 -7.72336e-09 136.72 -368.724 -7.06688e-09 109.164 -343.075 -6.4104e-09 81.714 -317.32 -5.75391e-09 54.3701 -291.46 -5.09743e-09 27.1321 -265.493 -4.44094e-09 -6.26812e-09 -239.421 -3.78446e-09 -27.0261 -213.242 -3.12798e-09 -53.9463 -186.958 -2.47148e-09 -80.7605 -160.567 -1.815e-09 -107.469 -134.071 -1.15851e-09 -134.071 -107.469 -5.02807e-10 -160.567 -80.7605 1.5211e-10 -186.958 -53.9463 8.07022e-10 -213.242 -27.0261 1.46195e-09 -239.421 -3.60592e-09 2.11686e-09 -265.493 27.1321 2.77178e-09 -291.46 54.3701 3.4267e-09 -317.32 81.714 4.08161e-09 -343.075 109.164 4.73653e-09 -368.724 136.72 5.39145e-09 -394.266 164.382 6.04637e-09 -419.703 192.149 6.70128e-09 -445.034 220.023 7.35619e-09 -470.259 248.003 8.01109e-09 -495.378 276.089 8.66603e-09 250.016 -518.036 -1.05361e-08 221.719 -493.365 -9.87531e-09 193.55 -468.564 -9.21448e-09 165.512 -443.633 -8.55364e-09 137.603 -418.573 -7.89279e-09 109.823 -393.383 -7.23197e-09 82.1732 -368.064 -6.57113e-09 54.6526 -342.616 -5.91029e-09 27.2616 -317.038 -5.24946e-09 -6.19116e-09 -291.33 -4.58862e-09 -27.1321 -265.493 -3.92779e-09 -54.1346 -239.527 -3.26695e-09 -81.0077 -213.43 -2.60612e-09 -107.751 -187.205 -1.94529e-09 -134.365 -160.85 -1.28446e-09 -160.85 -134.365 -6.27622e-10 -187.205 -107.751 2.51763e-11 -213.43 -81.0077 6.77977e-10 -239.527 -54.1346 1.33078e-09 -265.493 -27.1321 1.98359e-09 -291.33 -3.57943e-09 2.63639e-09 -317.038 27.2616 3.2892e-09 -342.616 54.6526 3.94202e-09 -368.064 82.1732 4.59481e-09 -393.383 109.823 5.24763e-09 -418.573 137.603 5.90042e-09 -443.633 165.512 6.55322e-09 -468.564 193.55 7.20605e-09 -493.365 221.719 7.85884e-09 -518.036 250.016 8.51165e-09 223.602 -540.353 -1.0723e-08 195.116 -516.152 -1.00578e-08 166.783 -491.799 -9.39259e-09 138.604 -467.292 -8.72741e-09 110.577 -442.632 -8.06221e-09 82.703 -417.819 -7.39705e-09 54.9823 -392.854 -6.73185e-09 27.4146 -367.735 -6.06667e-09 -6.1064e-09 -342.463 -5.40148e-09 -27.2616 -317.038 -4.73631e-09 -54.3701 -291.46 -4.07112e-09 -81.3255 -265.729 -3.40594e-09 -108.128 -239.844 -2.74076e-09 -134.777 -213.807 -2.07556e-09 -161.274 -187.617 -1.41039e-09 -187.617 -161.274 -7.5245e-10 -213.807 -134.777 -1.01751e-10 -239.844 -108.128 5.4894e-10 -265.729 -81.3255 1.19963e-09 -291.46 -54.3701 1.85032e-09 -317.038 -27.2616 2.50103e-09 -342.463 -3.54703e-09 3.15171e-09 -367.735 27.4146 3.80239e-09 -392.854 54.9823 4.4531e-09 -417.819 82.703 5.10379e-09 -442.632 110.577 5.75447e-09 -467.292 138.604 6.40517e-09 -491.799 166.783 7.05585e-09 -516.152 195.116 7.70655e-09 -540.353 223.602 8.35723e-09 196.847 -562.329 -1.09098e-08 168.196 -538.623 -1.02403e-08 139.722 -514.74 -9.57072e-09 111.424 -490.68 -8.90118e-09 83.3034 -466.444 -8.23163e-09 55.359 -442.032 -7.56213e-09 27.5912 -417.443 -6.89256e-09 -6.01307e-09 -392.677 -6.22305e-09 -27.4146 -367.735 -5.55352e-09 -54.6526 -342.616 -4.88397e-09 -81.714 -317.32 -4.21445e-09 -108.599 -291.848 -3.54491e-09 -135.307 -266.199 -2.87538e-09 -161.839 -240.374 -2.20586e-09 -188.194 -214.372 -1.53632e-09 -214.372 -188.194 -8.77263e-10 -240.374 -161.839 -2.28679e-10 -266.199 -135.307 4.19899e-10 -291.848 -108.599 1.06846e-09 -317.32 -81.714 1.71705e-09 -342.616 -54.6526 2.36562e-09 -367.735 -27.4146 3.01421e-09 -392.677 -3.50906e-09 3.66279e-09 -417.443 27.5912 4.31137e-09 -442.032 55.359 4.95997e-09 -466.444 83.3034 5.60854e-09 -490.68 111.424 6.25712e-09 -514.74 139.722 6.90567e-09 -538.623 168.196 7.55426e-09 -562.329 196.847 8.20282e-09 169.75 -583.963 -1.10966e-08 140.958 -560.775 -1.04227e-08 112.366 -537.386 -9.74885e-09 83.9744 -513.798 -9.07495e-09 55.7828 -490.009 -8.4011e-09 27.7913 -466.021 -7.72718e-09 -5.90802e-09 -441.832 -7.0533e-09 -27.5912 -417.443 -6.37942e-09 -54.9823 -392.854 -5.70555e-09 -82.1732 -368.064 -5.03167e-09 -109.164 -343.075 -4.35778e-09 -135.955 -317.885 -3.68391e-09 -162.545 -292.496 -3.01002e-09 -188.936 -266.906 -2.33613e-09 -215.126 -241.116 -1.66224e-09 -241.116 -215.126 -1.00207e-09 -266.906 -188.936 -3.556e-10 -292.496 -162.545 2.90857e-10 -317.885 -135.955 9.37327e-10 -343.075 -109.164 1.58379e-09 -368.064 -82.1732 2.23026e-09 -392.854 -54.9823 2.87672e-09 -417.443 -27.5912 3.52318e-09 -441.832 -3.46699e-09 4.16966e-09 -466.021 27.7913 4.81614e-09 -490.009 55.7828 5.46258e-09 -513.798 83.9744 6.10905e-09 -537.386 112.366 6.75551e-09 -560.775 140.958 7.40198e-09 -583.963 169.75 8.04845e-09 142.312 -605.256 -1.12834e-08 113.402 -582.609 -1.06052e-08 84.7161 -559.739 -9.92698e-09 56.2537 -536.645 -9.24873e-09 28.015 -513.327 -8.57047e-09 -5.79161e-09 -489.786 -7.89226e-09 -27.7913 -466.021 -7.21403e-09 -55.359 -442.032 -6.53581e-09 -82.703 -417.819 -5.85757e-09 -109.823 -393.383 -5.17935e-09 -136.72 -368.724 -4.50112e-09 -163.393 -343.84 -3.82289e-09 -189.842 -318.733 -3.14465e-09 -216.068 -293.402 -2.46641e-09 -242.069 -267.848 -1.78818e-09 -267.848 -242.069 -1.1269e-09 -293.402 -216.068 -4.8254e-10 -318.733 -189.842 1.61805e-10 -343.84 -163.393 8.06153e-10 -368.724 -136.72 1.45051e-09 -393.383 -109.823 2.09488e-09 -417.819 -82.703 2.73922e-09 -442.032 -55.359 3.3836e-09 -466.021 -27.7913 4.02794e-09 -489.786 -3.42015e-09 4.67227e-09 -513.327 28.015 5.31665e-09 -536.645 56.2537 5.96098e-09 -559.739 84.7161 6.60535e-09 -582.609 113.402 7.2497e-09 -605.256 142.312 7.89402e-09 114.532 -626.207 -1.14702e-08 85.5284 -604.125 -1.07877e-08 56.7717 -581.797 -1.01051e-08 28.2622 -559.221 -9.42252e-09 -5.66115e-09 -536.397 -8.73993e-09 -28.015 -513.327 -8.05734e-09 -55.7828 -490.009 -7.37475e-09 -83.3034 -466.444 -6.69219e-09 -110.577 -442.632 -6.00959e-09 -137.603 -418.573 -5.32702e-09 -164.382 -394.266 -4.64445e-09 -190.913 -369.712 -3.96185e-09 -217.198 -344.911 -3.27927e-09 -243.235 -319.863 -2.59671e-09 -269.025 -294.568 -1.91415e-09 -294.568 -269.025 -1.2517e-09 -319.863 -243.235 -6.09463e-10 -344.911 -217.198 3.2788e-11 -369.712 -190.913 6.75023e-10 -394.266 -164.382 1.31725e-09 -418.573 -137.603 1.95949e-09 -442.632 -110.577 2.60172e-09 -466.444 -83.3034 3.24395e-09 -490.009 -55.7828 3.8862e-09 -513.327 -28.015 4.52843e-09 -536.397 -3.37036e-09 5.17068e-09 -559.221 28.2622 5.81294e-09 -581.797 56.7717 6.4552e-09 -604.125 85.5284 7.09741e-09 -626.207 114.532 7.73966e-09 86.4114 -646.817 -1.16571e-08 57.3368 -625.324 -1.09701e-08 28.533 -603.56 -1.02832e-08 -5.51461e-09 -581.526 -9.59628e-09 -28.2622 -559.221 -8.90934e-09 -56.2537 -536.645 -8.2224e-09 -83.9744 -513.798 -7.53547e-09 -111.424 -490.68 -6.84858e-09 -138.604 -467.292 -6.16161e-09 -165.512 -443.633 -5.4747e-09 -192.149 -419.703 -4.78776e-09 -218.516 -395.502 -4.10083e-09 -244.612 -371.031 -3.4139e-09 -270.438 -346.289 -2.72698e-09 -295.992 -321.276 -2.04004e-09 -321.276 -295.992 -1.37651e-09 -346.289 -270.438 -7.36403e-10 -371.031 -244.612 -9.62892e-11 -395.502 -218.516 5.43849e-10 -419.703 -192.149 1.18398e-09 -443.633 -165.512 1.82412e-09 -467.292 -138.604 2.46423e-09 -490.68 -111.424 3.10435e-09 -513.798 -83.9744 3.74449e-09 -536.645 -56.2537 4.38462e-09 -559.221 -28.2622 5.02476e-09 -581.526 -3.31693e-09 5.66487e-09 -603.56 28.533 6.30496e-09 -625.324 57.3368 6.94513e-09 -646.817 86.4114 7.58524e-09 57.949 -667.085 -1.18438e-08 28.8273 -646.205 -1.11526e-08 -5.35218e-09 -625.03 -1.04614e-08 -28.533 -603.56 -9.77007e-09 -56.7717 -581.797 -9.07873e-09 -84.7161 -559.739 -8.38748e-09 -112.366 -537.386 -7.69622e-09 -139.722 -514.74 -7.00491e-09 -166.783 -491.799 -6.31366e-09 -193.55 -468.564 -5.62238e-09 -220.023 -445.034 -4.93111e-09 -246.202 -421.21 -4.23981e-09 -272.086 -397.092 -3.54854e-09 -297.676 -372.679 -2.85726e-09 -322.971 -347.972 -2.16599e-09 -347.972 -322.971 -1.50135e-09 -372.679 -297.676 -8.63338e-10 -397.092 -272.086 -2.25331e-10 -421.21 -246.202 4.12705e-10 -445.034 -220.023 1.05072e-09 -468.564 -193.55 1.68872e-09 -491.799 -166.783 2.32674e-09 -514.74 -139.722 2.96474e-09 -537.386 -112.366 3.60276e-09 -559.739 -84.7161 4.24076e-09 -581.797 -56.7717 4.87879e-09 -603.56 -28.533 5.5168e-09 -625.03 -3.2619e-09 6.15483e-09 -646.205 28.8273 6.79287e-09 -667.085 57.949 7.43083e-09 29.1452 -687.013 -1.20307e-08 -5.16913e-09 -666.768 -1.13351e-08 -28.8273 -646.205 -1.06395e-08 -57.3368 -625.324 -9.94378e-09 -85.5284 -604.125 -9.24816e-09 -113.402 -582.609 -8.55256e-09 -140.958 -560.775 -7.8569e-09 -168.196 -538.623 -7.1613e-09 -195.116 -516.152 -6.4657e-09 -221.719 -493.365 -5.77005e-09 -248.003 -470.259 -5.07443e-09 -273.969 -446.835 -4.3788e-09 -299.618 -423.094 -3.68318e-09 -324.949 -399.034 -2.98755e-09 -349.962 -374.657 -2.29193e-09 -374.657 -349.962 -1.62617e-09 -399.034 -324.949 -9.90241e-10 -423.094 -299.618 -3.54355e-10 -446.835 -273.969 2.81538e-10 -470.259 -248.003 9.17439e-10 -493.365 -221.719 1.55335e-09 -516.152 -195.116 2.18927e-09 -538.623 -168.196 2.82515e-09 -560.775 -140.958 3.46103e-09 -582.609 -113.402 4.09696e-09 -604.125 -85.5284 4.73287e-09 -625.324 -57.3368 5.36869e-09 -646.205 -28.8273 6.00471e-09 -666.768 -3.2046e-09 6.64051e-09 -687.013 29.1452 7.27641e-09 -4.96766e-09 -706.598 -1.22175e-08 -29.1452 -687.013 -1.15176e-08 -57.949 -667.085 -1.08176e-08 -86.4114 -646.817 -1.01176e-08 -114.532 -626.207 -9.41757e-09 -142.312 -605.256 -8.71767e-09 -169.75 -583.963 -8.01766e-09 -196.847 -562.329 -7.31771e-09 -223.602 -540.353 -6.61774e-09 -250.016 -518.036 -5.91774e-09 -276.089 -495.378 -5.21777e-09 -301.82 -472.378 -4.51777e-09 -327.209 -449.037 -3.8178e-09 -352.258 -425.354 -3.11783e-09 -376.965 -401.33 -2.41786e-09 -401.33 -376.965 -1.75098e-09 -425.354 -352.258 -1.11717e-09 -449.037 -327.209 -4.83404e-10 -472.378 -301.82 1.50393e-10 -495.378 -276.089 7.84169e-10 -518.036 -250.016 1.41796e-09 -540.353 -223.602 2.05175e-09 -562.329 -196.847 2.68555e-09 -583.963 -169.75 3.31933e-09 -605.256 -142.312 3.95309e-09 -626.207 -114.532 4.58689e-09 -646.817 -86.4114 5.22067e-09 -667.085 -57.949 5.85453e-09 -687.013 -29.1452 6.48825e-09 -706.598 -3.14685e-09 7.12205e-09 700.278 -2.77325e-09 -7.71997e-09 680.877 28.8943 -7.06207e-09 661.137 57.4495 -6.40417e-09 641.059 85.6657 -5.74628e-09 620.641 113.543 -5.08844e-09 599.884 141.081 -4.43056e-09 578.788 168.28 -3.77265e-09 557.353 195.14 -3.11479e-09 535.579 221.661 -2.45692e-09 513.465 247.843 -1.79904e-09 491.013 273.685 -1.14113e-09 468.222 299.189 -4.83262e-10 445.091 324.354 1.74606e-10 421.622 349.179 8.32498e-10 397.814 373.666 1.49038e-09 373.666 397.814 2.16365e-09 349.179 421.622 2.85234e-09 324.354 445.091 3.54104e-09 299.189 468.222 4.22972e-09 273.685 491.013 4.91841e-09 247.843 513.465 5.60708e-09 221.661 535.579 6.29576e-09 195.14 557.353 6.98448e-09 168.28 578.788 7.67313e-09 141.081 599.884 8.36183e-09 113.543 620.641 9.05052e-09 85.6657 641.059 9.73921e-09 57.4495 661.137 1.04279e-08 28.8943 680.877 1.11166e-08 -5.06827e-09 700.278 1.18053e-08 680.877 -28.8943 -7.83859e-09 660.822 -2.86275e-09 -7.18225e-09 640.451 28.5786 -6.52583e-09 619.764 56.8416 -5.86947e-09 598.761 84.7889 -5.2131e-09 577.443 112.42 -4.55673e-09 555.809 139.736 -3.90033e-09 533.86 166.737 -3.24396e-09 511.595 193.421 -2.5876e-09 489.014 219.79 -1.9312e-09 466.117 245.843 -1.27484e-09 442.905 271.581 -6.18442e-10 419.377 297.003 3.79259e-11 395.534 322.109 6.94296e-10 371.375 346.9 1.35067e-09 346.9 371.375 2.02187e-09 322.109 395.534 2.70789e-09 297.003 419.377 3.39391e-09 271.581 442.905 4.07991e-09 245.843 466.117 4.76595e-09 219.79 489.014 5.45197e-09 193.421 511.595 6.138e-09 166.737 533.86 6.82402e-09 139.736 555.809 7.51001e-09 112.42 577.443 8.19606e-09 84.7889 598.761 8.88206e-09 56.8416 619.764 9.5681e-09 28.5786 640.451 1.02541e-08 -5.34261e-09 660.822 1.09402e-08 -28.8943 680.877 1.16262e-08 661.137 -57.4495 -7.95724e-09 640.451 -28.5786 -7.3024e-09 619.472 -2.9495e-09 -6.6475e-09 598.2 28.2863 -5.99265e-09 576.636 56.2804 -5.33777e-09 554.78 83.9821 -4.68291e-09 532.632 111.392 -4.02802e-09 510.192 138.509 -3.37313e-09 487.459 165.334 -2.71827e-09 464.434 191.866 -2.0634e-09 441.116 218.107 -1.40852e-09 417.507 244.055 -7.5364e-10 393.605 269.71 -9.88054e-11 369.41 295.074 5.56068e-10 344.924 320.145 1.21095e-09 320.145 344.924 1.88007e-09 295.074 369.41 2.56343e-09 269.71 393.605 3.2468e-09 244.055 417.507 3.93014e-09 218.107 441.116 4.61351e-09 191.866 464.434 5.29688e-09 165.334 487.459 5.98023e-09 138.509 510.192 6.66359e-09 111.392 532.632 7.34698e-09 83.9821 554.78 8.03031e-09 56.2804 576.636 8.71367e-09 28.2863 598.2 9.39702e-09 -5.59179e-09 619.472 1.00804e-08 -28.5786 640.451 1.07638e-08 -57.4495 661.137 1.14471e-08 641.059 -85.6657 -8.07589e-09 619.764 -56.8416 -7.42249e-09 598.2 -28.2863 -6.76915e-09 576.368 -3.03299e-09 -6.11579e-09 554.266 28.0174 -5.46244e-09 531.896 55.7659 -4.80905e-09 509.256 83.2456 -4.15569e-09 486.348 110.456 -3.50231e-09 463.171 137.398 -2.84896e-09 439.725 164.071 -2.19558e-09 416.01 190.475 -1.54221e-09 392.026 216.61 -8.88858e-10 367.774 242.476 -2.35485e-10 343.252 268.073 4.17885e-10 318.461 293.402 1.07123e-09 293.402 318.461 1.73828e-09 268.073 343.252 2.41896e-09 242.476 367.774 3.09967e-09 216.61 392.026 3.78038e-09 190.475 416.01 4.46106e-09 164.071 439.725 5.14176e-09 137.398 463.171 5.82246e-09 110.456 486.348 6.50312e-09 8