<?xml version="1.0"?> 
<VTKFile type="StructuredGrid" version="0.1"> 
<StructuredGrid WholeExtent="0 29 0 29 0 29"> 
<Piece Extent="0 29 0 29 0 29"> 
<PointData>
<DataArray type="Float32" Name="hfield" format="ascii" NumberOfComponents="3"> 
-7.16772 115.06 -1.69271 -2.55811 115.311 -1.47412 1.15332 115.641 -1.28192 4.12696 116.051 -1.11159 6.48745 116.542 -0.959606 8.33287 117.115 -0.82315 9.74118 117.774 -0.699961 10.7749 118.519 -0.588192 11.4845 119.355 -0.486326 11.9111 120.283 -0.393103 12.088 121.308 -0.307468 12.0426 122.434 -0.22853 11.797 123.665 -0.155534 11.3694 125.007 -0.087832 10.7745 126.466 -0.0248693 10.1888 127.635 0.123205 9.71963 128.509 0.348039 9.23521 129.501 0.55863 8.73442 130.618 0.756291 8.21594 131.867 0.942177 7.67827 133.259 1.11731 7.11963 134.801 1.28259 6.538 136.507 1.43884 5.93104 138.388 1.58677 5.2961 140.46 1.72703 4.6301 142.739 1.8602 3.92954 145.246 1.98681 3.19037 148.003 2.10732 2.40791 151.036 2.22218 1.57673 154.375 2.33176 -10.1959 110.648 -1.47309 -6.64143 111.37 -1.28718 -3.79372 112.127 -1.12242 -1.53301 112.927 -0.975436 0.2353 113.777 -0.843555 1.58669 114.685 -0.72461 2.58187 115.656 -0.616825 3.27004 116.696 -0.51874 3.69128 117.813 -0.429136 3.8784 119.01 -0.34699 3.85827 120.295 -0.271439 3.65296 121.673 -0.201746 3.28052 123.152 -0.137281 2.75565 124.739 -0.0775007 2.09019 126.441 -0.0219347 1.49394 127.789 0.108608 1.05737 128.783 0.306611 0.608156 129.904 0.491781 0.145212 131.16 0.665255 -0.332723 132.56 0.82804 -0.827118 134.114 0.98103 -1.33966 135.834 1.12502 -1.8723 137.733 1.26074 -2.42725 139.826 1.3888 -3.00706 142.13 1.5098 -3.61467 144.665 1.62426 -4.25345 147.454 1.73264 -4.92729 150.523 1.83536 -5.64072 153.904 1.93282 -6.39901 157.632 2.02537 -13.5484 106.559 -1.28602 -10.8627 107.633 -1.12659 -8.73803 108.713 -0.98441 -7.08321 109.811 -0.856919 -5.8255 110.938 -0.742033 -4.90625 112.105 -0.638045 -4.27782 113.321 -0.543543 -3.90134 114.593 -0.457348 -3.74495 115.93 -0.378468 -3.78244 117.339 -0.306065 -3.9923 118.829 -0.23942 -4.35682 120.406 -0.17792 -4.86154 122.08 -0.121033 -5.49474 123.858 -0.0683009 -6.24703 125.751 -0.0193212 -6.87488 127.237 0.0956104 -7.30245 128.321 0.269733 -7.74266 129.539 0.432301 -8.19675 130.9 0.584307 -8.66617 132.414 0.72663 -9.15259 134.093 0.860057 -9.65792 135.948 0.985292 -10.1843 137.995 1.10297 -10.7343 140.251 1.21365 -11.3107 142.735 1.31786 -11.9167 145.47 1.41605 -12.5563 148.481 1.50865 -13.2336 151.799 1.59605 -13.9539 155.46 1.67859 -14.7232 159.504 1.75659 -17.1257 102.696 -1.12385 -15.1652 104.032 -0.986433 -13.6519 105.355 -0.86329 -12.516 106.68 -0.752416 -11.701 108.021 -0.652166 -11.1609 109.388 -0.561173 -10.8585 110.792 -0.478297 -10.7628 112.244 -0.402575 -10.8488 113.752 -0.333192 -11.0955 115.326 -0.269449 -11.486 116.974 -0.210749 -12.0062 118.705 -0.156573 -12.6448 120.528 -0.106473 -13.3927 122.454 -0.0600566 -14.2427 124.491 -0.0169796 -14.9174 126.08 0.0839699 -15.3539 127.228 0.236725 -15.8051 128.516 0.379103 -16.2728 129.953 0.51197 -16.7586 131.548 0.636099 -17.2647 133.316 0.75218 -17.7934 135.269 0.860836 -18.3475 137.425 0.962626 -18.9299 139.8 1.05806 -19.5443 142.418 1.14759 -20.1946 145.301 1.23163 -20.8855 148.481 1.31057 -21.6226 151.989 1.38475 -22.412 155.865 1.45448 -23.2614 160.157 1.52005 -20.8569 98.9859 -0.98106 -19.5078 100.517 -0.862375 -18.5158 102.023 -0.755608 -17.8269 103.519 -0.659169 -17.3972 105.021 -0.571739 -17.1908 106.541 -0.492211 -17.1782 108.09 -0.419652 -17.3354 109.678 -0.353272 -17.6424 111.316 -0.292392 -18.0831 113.014 -0.23643 -18.6441 114.781 -0.184882 -19.3145 116.627 -0.137312 -20.0859 118.562 -0.0933365 -20.9513 120.596 -0.0526205 -21.9058 122.74 -0.0148686 -22.6381 124.402 0.0734824 -23.0968 125.593 0.20701 -23.5743 126.926 0.331258 -24.0725 128.412 0.446983 -24.5938 130.061 0.55486 -25.141 131.888 0.655499 -25.717 133.906 0.749448 -26.3252 136.134 0.837203 -26.9695 138.591 0.919213 -27.6546 141.299 0.995885 -28.3855 144.287 1.06759 -29.1683 147.585 1.13467 -30.01 151.229 1.19743 -30.9189 155.263 1.25615 -31.9048 159.738 1.3111 -24.69 95.3782 -0.853548 -23.8605 97.0511 -0.751133 -23.3157 98.6912 -0.658721 -23.0137 100.315 -0.575036 -22.9204 101.937 -0.499009 -23.0078 103.57 -0.429737 -23.2532 105.226 -0.366454 -23.6377 106.916 -0.308503 -24.146 108.65 -0.255321 -24.7657 110.439 -0.206418 -25.4865 112.293 -0.16137 -26.3005 114.221 -0.119806 -27.2015 116.235 -0.0814012 -28.1849 118.345 -0.045868 -29.2474 120.563 -0.012953 -30.0447 122.272 0.0639741 -30.5354 123.486 0.180096 -31.0503 124.844 0.287972 -31.5919 126.357 0.388258 -32.1633 128.036 0.481547 -32.7677 129.895 0.568374 -33.4091 131.95 0.649219 -34.0918 134.219 0.72452 -34.8208 136.723 0.794674 -35.6019 139.486 0.860042 -36.4418 142.537 0.920953 -37.3482 145.908 0.97771 -38.3301 149.64 1.03059 -39.3984 153.777 1.07984 -40.5659 158.377 1.1257 -28.5863 91.8336 -0.738194 -28.2011 93.6065 -0.650175 -28.0416 95.3422 -0.57056 -28.0755 97.0569 -0.498318 -28.2765 98.7649 -0.432579 -28.6232 100.479 -0.372604 -29.0981 102.211 -0.31776 -29.6869 103.973 -0.267502 -30.378 105.775 -0.221359 -31.1622 107.627 -0.178922 -32.0322 109.54 -0.139832 -32.9824 111.524 -0.103777 -34.0086 113.589 -0.0704785 -35.1083 115.748 -0.039693 -36.28 118.011 -0.0112028 -37.147 119.746 0.0552951 -37.6768 120.968 0.155558 -38.2373 122.334 0.248554 -38.8318 123.855 0.334854 -39.4638 125.543 0.414973 -40.1377 127.412 0.489375 -40.8582 129.479 0.558483 -41.6307 131.762 0.622678 -42.4615 134.282 0.68231 -43.358 137.067 0.737695 -44.3283 140.144 0.789125 -45.3825 143.55 0.836866 -46.5321 147.324 0.881161 -47.7908 151.517 0.922235 -49.1748 156.186 0.960294 -32.5165 88.323 -0.632568 -32.5129 90.1617 -0.557502 -32.6864 91.961 -0.489473 -33.0126 93.7366 -0.427647 -33.4715 95.5024 -0.371314 -34.0471 97.271 -0.319868 -34.7262 99.0541 -0.272789 -35.4983 100.863 -0.229625 -36.3552 102.708 -0.189984 -37.2903 104.6 -0.153524 -38.2988 106.548 -0.119946 -39.3773 108.564 -0.0889848 -40.5236 110.658 -0.0604065 -41.7367 112.842 -0.0340037 -43.0169 115.127 -0.00959189 -43.9563 116.87 0.0473158 -44.5303 118.087 0.133026 -45.1423 119.447 0.212407 -45.7963 120.96 0.28595 -46.4968 122.639 0.354098 -47.2488 124.499 0.417253 -48.0583 126.556 0.47578 -48.9318 128.829 0.530011 -49.877 131.341 0.580248 -50.9029 134.118 0.626768 -52.0198 137.19 0.669824 -53.2398 140.594 0.709648 -54.5773 144.371 0.746454 -56.0493 148.574 0.780439 -57.6764 153.263 0.811783 -36.4583 84.8239 -0.534735 -36.7834 86.6997 -0.471507 -37.2454 88.5358 -0.414119 -37.8262 90.347 -0.361898 -38.5112 92.1466 -0.31427 -39.2887 93.9468 -0.27074 -40.1493 95.759 -0.230883 -41.0859 97.5938 -0.194328 -42.0927 99.4618 -0.160751 -43.1659 101.373 -0.12987 -44.3026 103.338 -0.101434 -45.5015 105.367 -0.0752242 -46.7621 107.47 -0.0510442 -48.0849 109.659 -0.0287204 -49.4718 111.946 -0.00809748 -50.4848 113.682 0.0399223 -51.1062 114.883 0.112174 -51.7737 116.224 0.179 -52.492 117.716 0.240818 -53.2662 119.372 0.298005 -54.1026 121.206 0.350902 -55.0079 123.235 0.39982 -55.9902 125.479 0.445044 -57.0586 127.959 0.486833 -58.2239 130.703 0.525422 -59.4984 133.742 0.561031 -60.8968 137.112 0.593858 -62.4365 140.857 0.624087 -64.1383 145.03 0.651888 -66.027 149.692 0.677416 -40.3945 81.3193 -0.443122 -41.0032 83.2072 -0.390866 -41.7154 85.0569 -0.343381 -42.5181 86.8818 -0.300129 -43.4012 88.6947 -0.260651 -44.3567 90.5069 -0.22455 -45.3786 92.3293 -0.191481 -46.4623 94.1722 -0.161144 -47.6046 96.0457 -0.133276 -48.8038 97.9596 -0.107648 -50.0589 99.924 -0.0840538 -51.3703 101.949 -0.0623141 -52.739 104.045 -0.0422681 -54.1672 106.223 -0.0237726 -55.6578 108.495 -0.00669947 -56.7444 110.211 0.0330137 -57.4156 111.387 0.0927137 -58.1412 112.7 0.147866 -58.9267 114.161 0.198815 -59.7782 115.781 0.245877 -60.7029 117.575 0.289336 -61.7086 119.561 0.329453 -62.8047 121.757 0.366464 -64.002 124.187 0.400587 -65.3129 126.876 0.43202 -66.7522 129.857 0.460947 -68.3371 133.165 0.487535 -70.0882 136.846 0.511938 -72.0301 140.952 0.5343 -74.1926 145.546 0.554752 -44.312 77.7959 -0.356419 -45.1655 79.674 -0.31447 -46.0944 81.5164 -0.276315 -47.0903 83.3358 -0.241537 -48.1468 85.1436 -0.209775 -49.2591 86.9506 -0.180717 -50.4239 88.7669 -0.154091 -51.639 90.6022 -0.129662 -52.9036 92.466 -0.107221 -54.2174 94.3679 -0.086584 -55.5815 96.3175 -0.0675896 -56.9975 98.3244 -0.0500936 -58.4681 100.399 -0.0339678 -59.9967 102.552 -0.0190975 -61.5877 104.795 -0.00537985 -62.7471 106.48 0.0264998 -63.4692 107.625 0.0743871 -64.2545 108.902 0.118581 -65.109 110.322 0.159361 -66.0399 111.896 0.19698 -67.055 113.64 0.23167 -68.1636 115.569 0.263641 -69.3764 117.703 0.293085 -70.7056 120.065 0.32018 -72.1656 122.681 0.345086 -73.7735 125.582 0.367952 -75.5491 128.804 0.388915 -77.5162 132.392 0.4081 -79.7036 136.398 0.425625 -82.1457 140.887 0.441596 -48.2008 74.2439 -0.273512 -49.2652 76.0916 -0.241365 -50.3816 77.9079 -0.212107 -51.5453 79.704 -0.185423 -52.7532 81.4903 -0.161042 -54.0031 83.2766 -0.138731 -55.2943 85.072 -0.118283 -56.6266 86.8857 -0.0995192 -58.0009 88.7266 -0.0822826 -59.4188 90.6036 -0.0664336 -60.8827 92.5259 -0.0518487 -62.3958 94.5027 -0.038418 -63.962 96.5438 -0.0260437 -65.5859 98.6596 -0.014638 -67.273 100.861 -0.00412228 -68.5039 102.508 0.0202983 -69.2775 103.616 0.0569581 -70.1231 104.85 0.0907621 -71.0474 106.222 0.121925 -72.0584 107.742 0.150643 -73.1649 109.425 0.177093 -74.3773 111.287 0.201439 -75.7076 113.347 0.223829 -77.1697 115.627 0.244399 -78.7798 118.152 0.263274 -80.5571 120.954 0.28057 -82.5242 124.069 0.296392 -84.7083 127.539 0.310839 -87.1419 131.417 0.323999 -89.8645 135.766 0.335958 -52.0536 70.6557 -0.193428 -53.2992 72.4536 -0.170716 -54.5771 74.2259 -0.150033 -55.886 75.9821 -0.131164 -57.2254 77.7315 -0.113918 -58.5957 79.4826 -0.098132 -59.998 81.2438 -0.0836628 -61.4341 83.0232 -0.0703848 -62.9067 84.8292 -0.0581874 -64.4186 86.6699 -0.0469729 -65.9738 88.5538 -0.0366543 -67.5765 90.4897 -0.0271544 -69.2318 92.4869 -0.0184042 -70.9455 94.5552 -0.0103419 -72.7241 96.7052 -0.0029117 -74.0246 98.3057 0.0143336 -74.8498 99.3729 0.0402095 -75.7556 100.56 0.0640545 -76.7497 101.877 0.0860208 -77.8406 103.336 0.106247 -79.0382 104.951 0.12486 -80.354 106.736 0.141975 -81.8012 108.711 0.157697 -83.3952 110.897 0.172124 -85.1541 113.319 0.185345 -87.0992 116.006 0.197441 -89.2558 118.993 0.208489 -91.6542 122.324 0.218557 -94.3308 126.048 0.22771 -97.3298 130.227 0.236008 -55.865 67.0263 -0.115294 -57.2653 68.7551 -0.101764 -58.6816 70.4657 -0.0894401 -60.1152 72.166 -0.078193 -61.5681 73.8636 -0.0679118 -63.0428 75.5659 -0.0584996 -64.5423 77.2801 -0.0498718 -66.07 79.0136 -0.0419541 -67.6298 80.7735 -0.0346808 -69.2263 82.5674 -0.0279939 -70.8641 84.4031 -0.021842 -72.549 86.2887 -0.016179 -74.2869 88.2328 -0.010964 -76.0847 90.2446 -0.00616003 -77.95 92.3341 -0.00173404 -79.3175 93.8829 0.00853472 -80.1938 94.9055 0.0239376 -81.1594 96.0411 0.0381254 -82.2224 97.2995 0.0511891 -83.3922 98.6919 0.0632115 -84.6796 100.231 0.0742681 -86.0971 101.933 0.0844281 -87.6591 103.814 0.0937545 -89.3824 105.896 0.102306 -91.287 108.201 0.110134 -93.3962 110.76 0.11729 -95.7377 113.604 0.123818 -98.3447 116.776 0.12976 -101.257 120.323 0.135154 -104.525 124.306 0.140037 -59.6317 63.3521 -0.0383057 -61.163 64.9924 -0.0338117 -62.6965 66.6236 -0.0297176 -64.2361 68.2519 -0.0259808 -65.7859 69.883 -0.0225647 -67.3503 71.5231 -0.0194371 -68.9338 73.1781 -0.01657 -70.5413 74.8542 -0.0139389 -72.1781 76.5576 -0.0115219 -73.8496 78.295 -0.00929989 -75.5619 80.0734 -0.00725573 -77.3214 81.8999 -0.0053742 -79.1353 83.7827 -0.00364165 -81.0111 85.7301 -0.00204587 -82.9574 87.7513 -0.000575861 -84.3891 89.2436 0.00283406 -85.3157 90.2192 0.00794805 -86.3399 91.3002 0.0126576 -87.4704 92.4961 0.0169929 -88.7173 93.8175 0.0209816 -90.0922 95.2768 0.0246487 -91.6086 96.8883 0.0280173 -93.282 98.6686 0.0311084 -95.1308 100.637 0.0339413 -97.1762 102.817 0.0365338 -99.4435 105.234 0.0389021 -101.963 107.922 0.0410615 -104.77 110.919 0.0430257 -107.909 114.27 0.0448076 -111.431 118.032 0.0464192 -63.3521 59.6317 0.0383057 -64.9924 61.163 0.0338117 -66.6236 62.6965 0.0297176 -68.2519 64.2361 0.0259808 -69.883 65.7859 0.0225647 -71.5231 67.3503 0.0194371 -73.1781 68.9338 0.01657 -74.8542 70.5413 0.0139389 -76.5576 72.1781 0.0115219 -78.295 73.8496 0.00929989 -80.0734 75.5619 0.00725573 -81.8999 77.3214 0.0053742 -83.7827 79.1353 0.00364165 -85.7301 81.0111 0.00204587 -87.7513 82.9574 0.000575861 -89.2436 84.3891 -0.00283406 -90.2192 85.3157 -0.00794805 -91.3002 86.3399 -0.0126576 -92.4961 87.4704 -0.0169929 -93.8175 88.7173 -0.0209816 -95.2768 90.0922 -0.0246487 -96.8883 91.6086 -0.0280173 -98.6686 93.282 -0.0311084 -100.637 95.1308 -0.0339413 -102.817 97.1762 -0.0365338 -105.234 99.4435 -0.0389021 -107.922 101.963 -0.0410615 -110.919 104.77 -0.0430257 -114.27 107.909 -0.0448076 -118.032 111.431 -0.0464192 -67.0263 55.865 0.115294 -68.7551 57.2653 0.101764 -70.4657 58.6816 0.0894401 -72.166 60.1152 0.078193 -73.8636 61.5681 0.0679118 -75.5659 63.0428 0.0584996 -77.2801 64.5423 0.0498718 -79.0136 66.07 0.0419541 -80.7735 67.6298 0.0346808 -82.5674 69.2263 0.0279939 -84.4031 70.8641 0.021842 -86.2887 72.549 0.016179 -88.2328 74.2869 0.010964 -90.2446 76.0847 0.00616003 -92.3341 77.95 0.00173404 -93.8829 79.3175 -0.00853472 -94.9055 80.1938 -0.0239376 -96.0411 81.1594 -0.0381254 -97.2995 82.2224 -0.0511891 -98.6919 83.3922 -0.0632115 -100.231 84.6796 -0.0742681 -101.933 86.0971 -0.0844281 -103.814 87.6591 -0.0937545 -105.896 89.3824 -0.102306 -108.201 91.287 -0.110134 -110.76 93.3962 -0.11729 -113.604 95.7377 -0.123818 -116.776 98.3447 -0.12976 -120.323 101.257 -0.135154 -124.306 104.525 -0.140037 -70.6557 52.0536 0.193428 -72.4536 53.2992 0.170716 -74.2259 54.5771 0.150033 -75.9821 55.886 0.131164 -77.7315 57.2254 0.113918 -79.4826 58.5957 0.098132 -81.2438 59.998 0.0836628 -83.0232 61.4341 0.0703848 -84.8292 62.9067 0.0581874 -86.6699 64.4186 0.0469729 -88.5538 65.9738 0.0366543 -90.4897 67.5765 0.0271544 -92.4869 69.2318 0.0184042 -94.5552 70.9455 0.0103419 -96.7052 72.7241 0.0029117 -98.3057 74.0246 -0.0143336 -99.3729 74.8498 -0.0402095 -100.56 75.7556 -0.0640545 -101.877 76.7497 -0.0860208 -103.336 77.8406 -0.106247 -104.951 79.0382 -0.12486 -106.736 80.354 -0.141975 -108.711 81.8012 -0.157697 -110.897 83.3952 -0.172124 -113.319 85.1541 -0.185345 -116.006 87.0992 -0.197441 -118.993 89.2558 -0.208489 -122.324 91.6542 -0.218557 -126.048 94.3308 -0.22771 -130.227 97.3298 -0.236008 -74.2439 48.2008 0.273512 -76.0916 49.2652 0.241365 -77.9079 50.3816 0.212107 -79.704 51.5453 0.185423 -81.4903 52.7532 0.161042 -83.2766 54.0031 0.138731 -85.072 55.2943 0.118283 -86.8857 56.6266 0.0995192 -88.7266 58.0009 0.0822826 -90.6036 59.4188 0.0664336 -92.5259 60.8827 0.0518487 -94.5027 62.3958 0.038418 -96.5438 63.962 0.0260437 -98.6596 65.5859 0.014638 -100.861 67.273 0.00412228 -102.508 68.5039 -0.0202983 -103.616 69.2775 -0.0569581 -104.85 70.1231 -0.0907621 -106.222 71.0474 -0.121925 -107.742 72.0584 -0.150643 -109.425 73.1649 -0.177093 -111.287 74.3773 -0.201439 -113.347 75.7076 -0.223829 -115.627 77.1697 -0.244399 -118.152 78.7798 -0.263274 -120.954 80.5571 -0.28057 -124.069 82.5242 -0.296392 -127.539 84.7083 -0.310839 -131.417 87.1419 -0.323999 -135.766 89.8645 -0.335958 -77.7959 44.312 0.356419 -79.674 45.1655 0.31447 -81.5164 46.0944 0.276315 -83.3358 47.0903 0.241537 -85.1436 48.1468 0.209775 -86.9506 49.2591 0.180717 -88.7669 50.4239 0.154091 -90.6022 51.639 0.129662 -92.466 52.9036 0.107221 -94.3679 54.2174 0.086584 -96.3175 55.5815 0.0675896 -98.3244 56.9975 0.0500936 -100.399 58.4681 0.0339678 -102.552 59.9967 0.0190975 -104.795 61.5877 0.00537985 -106.48 62.7471 -0.0264998 -107.625 63.4692 -0.0743871 -108.902 64.2545 -0.118581 -110.322 65.109 -0.159361 -111.896 66.0399 -0.19698 -113.64 67.055 -0.23167 -115.569 68.1636 -0.263641 -117.703 69.3764 -0.293085 -120.065 70.7056 -0.32018 -122.681 72.1656 -0.345086 -125.582 73.7735 -0.367952 -128.804 75.5491 -0.388915 -132.392 77.5162 -0.4081 -136.398 79.7036 -0.425625 -140.887 82.1457 -0.441596 -81.3193 40.3945 0.443122 -83.2072 41.0032 0.390866 -85.0569 41.7154 0.343381 -86.8818 42.5181 0.300129 -88.6947 43.4012 0.260651 -90.5069 44.3567 0.22455 -92.3293 45.3786 0.191481 -94.1722 46.4623 0.161144 -96.0457 47.6046 0.133276 -97.9596 48.8038 0.107648 -99.924 50.0589 0.0840538 -101.949 51.3703 0.0623141 -104.045 52.739 0.0422681 -106.223 54.1672 0.0237726 -108.495 55.6578 0.00669947 -110.211 56.7444 -0.0330137 -111.387 57.4156 -0.0927137 -112.7 58.1412 -0.147866 -114.161 58.9267 -0.198815 -115.781 59.7782 -0.245877 -117.575 60.7029 -0.289336 -119.561 61.7086 -0.329453 -121.757 62.8047 -0.366464 -124.187 64.002 -0.400587 -126.876 65.3129 -0.43202 -129.857 66.7522 -0.460947 -133.165 68.3371 -0.487535 -136.846 70.0882 -0.511938 -140.952 72.0301 -0.5343 -145.546 74.1926 -0.554752 -84.8239 36.4583 0.534735 -86.6997 36.7834 0.471507 -88.5358 37.2454 0.414119 -90.347 37.8262 0.361898 -92.1466 38.5112 0.31427 -93.9468 39.2887 0.27074 -95.759 40.1493 0.230883 -97.5938 41.0859 0.194328 -99.4618 42.0927 0.160751 -101.373 43.1659 0.12987 -103.338 44.3026 0.101434 -105.367 45.5015 0.0752242 -107.47 46.7621 0.0510442 -109.659 48.0849 0.0287204 -111.946 49.4718 0.00809748 -113.682 50.4848 -0.0399223 -114.883 51.1062 -0.112174 -116.224 51.7737 -0.179 -117.716 52.492 -0.240818 -119.372 53.2662 -0.298005 -121.206 54.1026 -0.350902 -123.235 55.0079 -0.39982 -125.479 55.9902 -0.445044 -127.959 57.0586 -0.486833 -130.703 58.2239 -0.525422 -133.742 59.4984 -0.561031 -137.112 60.8968 -0.593858 -140.857 62.4365 -0.624087 -145.03 64.1383 -0.651888 -149.692 66.027 -0.677416 -88.323 32.5165 0.632568 -90.1617 32.5129 0.557502 -91.961 32.6864 0.489473 -93.7366 33.0126 0.427647 -95.5024 33.4715 0.371314 -97.271 34.0471 0.319868 -99.0541 34.7262 0.272789 -100.863 35.4983 0.229625 -102.708 36.3552 0.189984 -104.6 37.2903 0.153524 -106.548 38.2988 0.119946 -108.564 39.3773 0.0889848 -110.658 40.5236 0.0604065 -112.842 41.7367 0.0340037 -115.127 43.0169 0.00959189 -116.87 43.9563 -0.0473158 -118.087 44.5303 -0.133026 -119.447 45.1423 -0.212407 -120.96 45.7963 -0.28595 -122.639 46.4968 -0.354098 -124.499 47.2488 -0.417253 -126.556 48.0583 -0.47578 -128.829 48.9318 -0.530011 -131.341 49.877 -0.580248 -134.118 50.9029 -0.626768 -137.19 52.0198 -0.669824 -140.594 53.2398 -0.709648 -144.371 54.5773 -0.746454 -148.574 56.0493 -0.780439 -153.263 57.6764 -0.811783 -91.8336 28.5863 0.738194 -93.6065 28.2011 0.650175 -95.3422 28.0416 0.57056 -97.0569 28.0755 0.498318 -98.7649 28.2765 0.432579 -100.479 28.6232 0.372604 -102.211 29.0981 0.31776 -103.973 29.6869 0.267502 -105.775 30.378 0.221359 -107.627 31.1622 0.178922 -109.54 32.0322 0.139832 -111.524 32.9824 0.103777 -113.589 34.0086 0.0704785 -115.748 35.1083 0.039693 -118.011 36.28 0.0112028 -119.746 37.147 -0.0552951 -120.968 37.6768 -0.155558 -122.334 38.2373 -0.248554 -123.855 38.8318 -0.334854 -125.543 39.4638 -0.414973 -127.412 40.1377 -0.489375 -129.479 40.8582 -0.558483 -131.762 41.6307 -0.622678 -134.282 42.4615 -0.68231 -137.067 43.358 -0.737695 -140.144 44.3283 -0.789125 -143.55 45.3825 -0.836866 -147.324 46.5321 -0.881161 -151.517 47.7908 -0.922235 -156.186 49.1748 -0.960294 -95.3782 24.69 0.853548 -97.0511 23.8605 0.751133 -98.6912 23.3157 0.658721 -100.315 23.0137 0.575036 -101.937 22.9204 0.499009 -103.57 23.0078 0.429737 -105.226 23.2532 0.366454 -106.916 23.6377 0.308503 -108.65 24.146 0.255321 -110.439 24.7657 0.206418 -112.293 25.4865 0.16137 -114.221 26.3005 0.119806 -116.235 27.2015 0.0814012 -118.345 28.1849 0.045868 -120.563 29.2474 0.012953 -122.272 30.0447 -0.0639741 -123.486 30.5354 -0.180096 -124.844 31.0503 -0.287972 -126.357 31.5919 -0.388258 -128.036 32.1633 -0.481547 -129.895 32.7677 -0.568374 -131.95 33.4091 -0.649219 -134.219 34.0918 -0.72452 -136.723 34.8208 -0.794674 -139.486 35.6019 -0.860042 -142.537 36.4418 -0.920953 -145.908 37.3482 -0.97771 -149.64 38.3301 -1.03059 -153.777 39.3984 -1.07984 -158.377 40.5659 -1.1257 -98.9859 20.8569 0.98106 -100.517 19.5078 0.862375 -102.023 18.5158 0.755608 -103.519 17.8269 0.659169 -105.021 17.3972 0.571739 -106.541 17.1908 0.492211 -108.09 17.1782 0.419652 -109.678 17.3354 0.353272 -111.316 17.6424 0.292392 -113.014 18.0831 0.23643 -114.781 18.6441 0.184882 -116.627 19.3145 0.137312 -118.562 20.0859 0.0933365 -120.596 20.9513 0.0526205 -122.74 21.9058 0.0148686 -124.402 22.6381 -0.0734824 -125.593 23.0968 -0.20701 -126.926 23.5743 -0.331258 -128.412 24.0725 -0.446983 -130.061 24.5938 -0.55486 -131.888 25.141 -0.655499 -133.906 25.717 -0.749448 -136.134 26.3252 -0.837203 -138.591 26.9695 -0.919213 -141.299 27.6546 -0.995885 -144.287 28.3855 -1.06759 -147.585 29.1683 -1.13467 -151.229 30.01 -1.19743 -155.263 30.9189 -1.25615 -159.738 31.9048 -1.3111 -102.696 17.1257 1.12385 -104.032 15.1652 0.986433 -105.355 13.6519 0.86329 -106.68 12.516 0.752416 -108.021 11.701 0.652166 -109.388 11.1609 0.561173 -110.792 10.8585 0.478297 -112.244 10.7628 0.402575 -113.752 10.8488 0.333192 -115.326 11.0955 0.269449 -116.974 11.486 0.210749 -118.705 12.0062 0.156573 -120.528 12.6448 0.106473 -122.454 13.3927 0.0600566 -124.491 14.2427 0.0169796 -126.08 14.9174 -0.0839699 -127.228 15.3539 -0.236725 -128.516 15.8051 -0.379103 -129.953 16.2728 -0.51197 -131.548 16.7586 -0.636099 -133.316 17.2647 -0.75218 -135.269 17.7934 -0.860836 -137.425 18.3475 -0.962626 -139.8 18.9299 -1.05806 -142.418 19.5443 -1.14759 -145.301 20.1946 -1.23163 -148.481 20.8855 -1.31057 -151.989 21.6226 -1.38475 -155.865 22.412 -1.45448 -160.157 23.2614 -1.52005 -106.559 13.5484 1.28602 -107.633 10.8627 1.12659 -108.713 8.73803 0.98441 -109.811 7.08321 0.856919 -110.938 5.8255 0.742033 -112.105 4.90625 0.638045 -113.321 4.27782 0.543543 -114.593 3.90134 0.457348 -115.93 3.74495 0.378468 -117.339 3.78244 0.306065 -118.829 3.9923 0.23942 -120.406 4.35682 0.17792 -122.08 4.86154 0.121033 -123.858 5.49474 0.0683009 -125.751 6.24703 0.0193212 -127.237 6.87488 -0.0956104 -128.321 7.30245 -0.269733 -129.539 7.74266 -0.432301 -130.9 8.19675 -0.584307 -132.414 8.66617 -0.72663 -134.093 9.15259 -0.860057 -135.948 9.65792 -0.985292 -137.995 10.1843 -1.10297 -140.251 10.7343 -1.21365 -142.735 11.3107 -1.31786 -145.47 11.9167 -1.41605 -148.481 12.5563 -1.50865 -151.799 13.2336 -1.59605 -155.46 13.9539 -1.67859 -159.504 14.7232 -1.75659 -110.648 10.1959 1.47309 -111.37 6.64143 1.28718 -112.127 3.79372 1.12242 -112.927 1.53301 0.975436 -113.777 -0.2353 0.843555 -114.685 -1.58669 0.72461 -115.656 -2.58187 0.616825 -116.696 -3.27004 0.51874 -117.813 -3.69128 0.429136 -119.01 -3.8784 0.34699 -120.295 -3.85827 0.271439 -121.673 -3.65296 0.201746 -123.152 -3.28052 0.137281 -124.739 -2.75565 0.0775007 -126.441 -2.09019 0.0219347 -127.789 -1.49394 -0.108608 -128.783 -1.05737 -0.306611 -129.904 -0.608156 -0.491781 -131.16 -0.145212 -0.665255 -132.56 0.332723 -0.82804 -134.114 0.827118 -0.98103 -135.834 1.33966 -1.12502 -137.733 1.8723 -1.26074 -139.826 2.42725 -1.3888 -142.13 3.00706 -1.5098 -144.665 3.61467 -1.62426 -147.454 4.25345 -1.73264 -150.523 4.92729 -1.83536 -153.904 5.64072 -1.93282 -157.632 6.39901 -2.02537 -115.06 7.16772 1.69271 -115.311 2.55811 1.47412 -115.641 -1.15332 1.28192 -116.051 -4.12696 1.11159 -116.542 -6.48745 0.959606 -117.115 -8.33287 0.82315 -117.774 -9.74118 0.699961 -118.519 -10.7749 0.588192 -119.355 -11.4845 0.486326 -120.283 -11.9111 0.393103 -121.308 -12.088 0.307468 -122.434 -12.0426 0.22853 -123.665 -11.797 0.155534 -125.007 -11.3694 0.087832 -126.466 -10.7745 0.0248693 -127.635 -10.1888 -0.123205 -128.509 -9.71963 -0.348039 -129.501 -9.23521 -0.55863 -130.618 -8.73442 -0.756291 -131.867 -8.21594 -0.942177 -133.259 -7.67827 -1.11731 -134.801 -7.11963 -1.28259 -136.507 -6.538 -1.43884 -138.388 -5.93104 -1.58677 -140.46 -5.2961 -1.72703 -142.739 -4.6301 -1.8602 -145.246 -3.92954 -1.98681 -148.003 -3.19037 -2.10732 -151.036 -2.40791 -2.22218 -154.375 -1.57673 -2.33176 -4.57285 367.449 -4.7937 3.52149 376.896 -4.0303 9.70496 386.433 -3.47783 14.3672 396.076 -3.07897 17.81 405.841 -2.79035 20.2702 415.747 -2.57882 21.9362 425.812 -2.41883 22.9596 436.054 -2.29053 23.4636 446.493 -2.17844 23.5493 457.15 -2.07041 23.3005 468.046 -1.95691 22.7872 479.205 -1.83045 22.0685 490.65 -1.68513 21.1945 502.408 -1.51632 20.2083 514.505 -1.32039 20.181 523.487 -1.51366 20.8092 529.353 -2.03798 20.9968 535.596 -2.45569 20.7909 542.24 -2.76716 20.2316 549.309 -2.97257 19.3533 556.83 -3.07182 18.1852 564.831 -3.06451 16.7524 573.347 -2.9499 15.0759 582.413 -2.72685 13.1734 592.07 -2.3938 11.0595 602.361 -1.94867 8.74586 613.338 -1.38886 6.24169 625.055 -0.711122 3.55367 637.575 0.0884808 0.686129 650.967 1.01469 -15.0828 352.933 -3.03921 -10.0484 363.571 -2.49879 -6.43109 374.163 -2.12017 -3.94855 384.744 -1.85868 -2.37879 395.347 -1.68017 -1.54501 406 -1.55828 -1.30489 416.734 -1.47259 -1.54277 427.574 -1.40721 -2.1638 438.548 -1.34973 -3.08953 449.682 -1.29047 -4.25457 461.003 -1.22187 -5.60401 472.539 -1.13809 -7.09134 484.318 -1.03459 -8.67693 496.368 -0.907918 -10.3267 508.721 -0.755478 -10.9544 518.245 -0.945727 -10.8262 524.94 -1.42731 -11.0548 531.983 -1.81381 -11.601 539.401 -2.10607 -12.4315 547.223 -2.30481 -13.5173 555.48 -2.41054 -14.8339 564.206 -2.42353 -16.3602 573.438 -2.34379 -18.0784 583.216 -2.17102 -19.9735 593.585 -1.90458 -22.0332 604.594 -1.54343 -24.2473 616.298 -1.08609 -26.6081 628.759 -0.530595 -29.1096 642.043 0.125601 -31.7482 656.229 0.885668 -26.4878 339.312 -1.72553 -24.0226 350.824 -1.34683 -22.6002 362.199 -1.09429 -22.014 373.482 -0.932269 -22.0993 384.712 -0.833253 -22.7238 395.927 -0.775916 -23.7799 407.161 -0.743671 -25.1796 418.446 -0.723596 -26.8504 429.813 -0.705639 -28.732 441.294 -0.682001 -30.7741 452.917 -0.646669 -32.9343 464.713 -0.595051 -35.1768 476.714 -0.52369 -37.4709 488.95 -0.430045 -39.7905 501.455 -0.312304 -41.0413 511.382 -0.495907 -41.457 518.734 -0.935513 -42.1603 526.408 -1.29058 -43.1195 534.434 -1.56233 -44.3075 542.844 -1.75189 -45.7008 551.672 -1.86022 -47.2795 560.956 -1.88813 -49.027 570.736 -1.83621 -50.929 581.056 -1.70482 -52.9738 591.964 -1.49403 -55.152 603.513 -1.20363 -57.4562 615.763 -0.833047 -59.8808 628.779 -0.381324 -62.4223 642.635 0.152943 -65.0789 657.414 0.771658 -38.5226 326.321 -0.753459 -38.2431 338.47 -0.492946 -38.7176 350.418 -0.332042 -39.794 362.215 -0.241766 -41.35 373.905 -0.199621 -43.2866 385.529 -0.188099 -45.5232 397.124 -0.193566 -47.9934 408.726 -0.205414 -50.6424 420.367 -0.215425 -53.4248 432.081 -0.217279 -56.3026 443.9 -0.206164 -59.2441 455.856 -0.178481 -62.2224 467.982 -0.131607 -65.2149 480.31 -0.0637079 -68.2024 492.875 0.0264151 -70.0873 503.084 -0.147832 -71.0753 510.942 -0.546482 -72.2947 519.097 -0.870271 -73.7204 527.582 -1.12068 -75.3313 536.432 -1.29913 -77.1094 545.683 -1.40692 -79.0396 555.376 -1.44525 -81.1094 565.553 -1.41515 -83.3089 576.261 -1.31745 -85.6299 587.551 -1.15281 -88.0668 599.48 -0.921628 -90.6153 612.11 -0.624036 -93.2735 625.512 -0.25987 -96.0408 639.763 0.171379 -98.9189 654.952 0.670605 -50.9945 313.767 -0.050115 -52.5942 326.368 0.123884 -54.7215 338.724 0.218535 -57.2646 350.886 0.257699 -60.1332 362.9 0.259977 -63.254 374.808 0.239877 -66.5673 386.648 0.208697 -70.024 398.457 0.175205 -73.5836 410.27 0.146155 -77.2129 422.122 0.126692 -80.8842 434.046 0.120672 -84.5748 446.074 0.13091 -88.2657 458.241 0.159377 -91.9412 470.58 0.207362 -95.5884 483.126 0.275596 -98.1095 493.509 0.112719 -99.6858 501.737 -0.246145 -101.448 510.24 -0.539042 -103.378 519.052 -0.767621 -105.46 528.21 -0.933491 -107.681 537.753 -1.03819 -110.032 547.721 -1.08318 -112.503 558.16 -1.06978 -115.089 569.119 -0.999194 -117.787 580.65 -0.872469 -120.594 592.815 -0.690467 -123.511 605.677 -0.453848 -126.54 619.31 -0.163044 -129.684 633.796 0.181771 -132.949 649.227 0.580714 -63.7606 301.507 0.439449 -66.9895 314.415 0.550435 -70.5663 327.046 0.597853 -74.4097 339.451 0.601503 -78.4541 351.675 0.576863 -82.6461 363.761 0.53602 -86.9427 375.747 0.488376 -91.3086 387.672 0.441205 -95.7152 399.571 0.400072 -100.139 411.478 0.369171 -104.562 423.427 0.351592 -108.968 435.452 0.349528 -113.346 447.587 0.36444 -117.686 459.865 0.397199 -121.98 472.323 0.448188 -125.132 482.787 0.298175 -127.303 491.267 -0.0221261 -129.624 500.001 -0.284662 -132.083 509.024 -0.491164 -134.67 518.373 -0.643345 -137.376 528.089 -0.742875 -140.197 538.214 -0.791362 -143.13 548.795 -0.79033 -146.172 559.882 -0.741206 -149.324 571.53 -0.645299 -152.59 583.8 -0.503787 -155.973 596.76 -0.317698 -159.481 610.486 -0.0878919 -163.122 625.062 0.184961 -166.908 640.584 0.500404 -76.7131 289.433 0.757607 -81.3636 302.53 0.823294 -86.2183 315.326 0.837934 -91.2192 327.871 0.818007 -96.3197 340.211 0.776419 -101.483 352.386 0.72325 -106.678 364.436 0.666333 -111.882 376.398 0.611698 -117.076 388.307 0.563932 -122.245 400.198 0.52645 -127.378 412.104 0.501721 -132.466 424.06 0.491442 -137.503 436.099 0.496681 -142.486 448.256 0.517993 -147.411 460.566 0.555506 -151.183 471.027 0.419456 -153.946 479.655 0.136509 -156.833 488.516 -0.0962689 -159.835 497.647 -0.280616 -162.948 507.084 -0.418268 -166.17 516.87 -0.510938 -169.498 527.047 -0.560297 -172.936 537.663 -0.567959 -176.485 548.769 -0.535467 -180.152 560.421 -0.464283 -183.943 572.682 -0.355771 -187.869 585.62 -0.211189 -191.941 599.314 -0.0316752 -196.173 613.849 0.181767 -200.585 629.326 0.428283 -89.7695 277.464 0.937745 -95.6672 290.65 0.971649 -101.653 303.519 0.964614 -107.687 316.118 0.930329 -113.738 328.492 0.879526 -119.782 340.68 0.820589 -125.8 352.721 0.760016 -131.777 364.652 0.702793 -137.703 376.506 0.652681 -143.57 388.319 0.612451 -149.373 400.123 0.584064 -155.109 411.953 0.568826 -160.778 423.842 0.5675 -166.38 435.824 0.580408 -171.917 447.933 0.607507 -176.296 458.32 0.486225 -179.643 467.004 0.239481 -183.093 475.901 0.0358376 -186.644 485.048 -0.126385 -190.296 494.484 -0.248877 -194.05 504.248 -0.333318 -197.911 514.384 -0.38136 -201.885 524.941 -0.394621 -205.978 535.97 -0.374667 -210.202 