<?xml version="1.0"?> 
<VTKFile type="StructuredGrid" version="0.1"> 
<StructuredGrid WholeExtent="0 29 0 29 0 29"> 
<Piece Extent="0 29 0 29 0 29"> 
<PointData>
<DataArray type="Float32" Name="hfield" format="ascii" NumberOfComponents="3"> 
-30.5948 1.09578 -0.180918 -31.3241 0.270969 -0.132037 -32.0535 -0.367209 -0.0894714 -32.7829 -0.855796 -0.0520725 -33.5123 -1.22336 -0.0189532 -34.2417 -1.49227 0.0105813 -34.971 -1.68033 0.0370833 -35.7004 -1.80183 0.0609968 -36.4298 -1.86843 0.0826836 -37.1592 -1.8897 0.102441 -37.8886 -1.87358 0.120515 -38.6179 -1.82671 0.137112 -39.3473 -1.75471 0.152407 -40.0767 -1.66231 0.166546 -40.8061 -1.55359 0.179656 -41.0765 -1.57674 0.19788 -40.8878 -1.70182 0.220698 -40.6992 -1.77764 0.242019 -40.5106 -1.80849 0.261985 -40.3219 -1.79812 0.280722 -40.1333 -1.74983 0.298339 -39.9447 -1.66654 0.314934 -39.7561 -1.55084 0.330594 -39.5674 -1.40504 0.345395 -39.3788 -1.2312 0.359407 -39.1902 -1.03118 0.37269 -39.0016 -0.806618 0.3853 -38.8129 -0.559022 0.397287 -38.6243 -0.289741 0.408696 -38.4357 7.25331e-15 0.419568 -29.2978 1.83325 -0.158026 -30.1422 1.29356 -0.115738 -30.976 0.893482 -0.0786498 -31.8008 0.60595 -0.0458782 -32.6178 0.40972 -0.0167286 -33.4282 0.287875 0.00935231 -34.2327 0.226784 0.0328104 -35.032 0.21534 0.0540092 -35.8266 0.244404 0.0732482 -36.617 0.30639 0.0907761 -37.4036 0.394948 0.106801 -38.1867 0.504724 0.1215 -38.9665 0.631175 0.135021 -39.7433 0.770419 0.147493 -40.5173 0.919121 0.159025 -40.846 0.918496 0.175052 -40.7297 0.796496 0.195102 -40.6111 0.715352 0.213783 -40.4906 0.671384 0.23122 -40.3682 0.661348 0.247525 -40.2442 0.682377 0.262795 -40.1187 0.731922 0.277119 -39.9919 0.807714 0.290573 -39.8638 0.907725 0.303227 -39.7347 1.03014 0.315144 -39.6045 1.17331 0.326379 -39.4734 1.33577 0.336983 -39.3414 1.51618 0.347001 -39.2087 1.71335 0.356476 -39.0752 1.92615 0.365443 -28.0997 2.66954 -0.138376 -29.0289 2.36738 -0.101622 -29.9408 2.16942 -0.0692082 -30.8379 2.05553 -0.0404407 -31.7219 2.00969 -0.0147658 -32.5946 2.01893 0.00826351 -33.4571 2.07271 0.0290123 -34.3105 2.16236 0.0477814 -35.1557 2.28064 0.0648211 -35.9933 2.42154 0.0803413 -36.8239 2.57997 0.0945194 -37.6482 2.7516 0.107506 -38.4665 2.93277 0.119431 -39.2793 3.1203 0.130405 -40.0868 3.31148 0.140523 -40.4622 3.33731 0.154586 -40.4058 3.22388 0.172166 -40.3455 3.14394 0.188498 -40.2815 3.09434 0.203693 -40.2141 3.0723 0.217851 -40.1438 3.07535 0.231058 -40.0706 3.10127 0.243392 -39.995 3.14809 0.254925 -39.917 3.21406 0.265718 -39.8369 3.29757 0.275827 -39.7548 3.3972 0.285304 -39.6709 3.51165 0.294194 -39.5853 3.63974 0.30254 -39.4982 3.78041 0.310378 -39.4097 3.93269 0.317744 -26.9724 3.57668 -0.12123 -27.9638 3.47524 -0.0892176 -28.9338 3.45083 -0.0608625 -29.8849 3.48828 -0.035611 -30.8195 3.57531 -0.0130156 -31.7392 3.70195 0.00728946 -32.6456 3.85997 0.0256058 -33.5399 4.04255 0.0421844 -34.4231 4.24397 0.0572362 -35.2961 4.45942 0.0709392 -36.1596 4.68485 0.0834451 -37.0143 4.91676 0.0948836 -37.8608 5.1522 0.105367 -38.6994 5.38859 0.114991 -39.5307 5.62373 0.123842 -39.9423 5.67876 0.136143 -39.9351 5.57797 0.151513 -39.9225 5.50424 0.16575 -39.9048 5.45488 0.178954 -39.8825 5.42751 0.191212 -39.856 5.42002 0.202602 -39.8256 5.43051 0.213194 -39.7917 5.45728 0.223051 -39.7544 5.49881 0.232229 -39.714 5.55372 0.24078 -39.6708 5.62077 0.248749 -39.625 5.69884 0.256177 -39.5767 5.78691 0.263104 -39.5262 5.88405 0.269563 -39.4735 5.98941 0.275586 -25.8957 4.53441 -0.106048 -26.932 4.60455 -0.0781724 -27.9441 4.73055 -0.0533967 -28.9348 4.90082 -0.031274 -29.9063 5.10592 -0.011439 -30.8606 5.33809 0.00640991 -31.799 5.5909 0.0225239 -32.7231 5.85897 0.0371136 -33.6338 6.13778 0.0503573 -34.5321 6.42349 0.0624066 -35.4188 6.71287 0.0733915 -36.2946 7.00311 0.0834239 -37.1601 7.29184 0.0926008 -38.0159 7.577 0.101007 -38.8623 7.8568 0.108715 -39.3011 7.94279 0.119433 -39.3336 7.8576 0.132818 -39.3594 7.79384 0.145181 -39.379 7.74923 0.15661 -39.3929 7.72176 0.167184 -39.4016 7.70964 0.176971 -39.4055 7.71126 0.186034 -39.4048 7.72516 0.194428 -39.4 7.75005 0.202206 -39.3913 7.78475 0.209412 -39.3789 7.82821 0.216087 -39.3631 7.87945 0.22227 -39.344 7.93761 0.227996 -39.322 8.00189 0.233294 -39.2972 8.07156 0.238195 -24.8547 5.52777 -0.0924264 -25.9221 5.74594 -0.0682174 -26.9637 6.00324 -0.046643 -27.982 6.29076 -0.027339 -28.9794 6.60121 -0.0100052 -29.9576 6.92853 0.00560854 -30.9182 7.26769 0.019712 -31.8625 7.61445 0.0324826 -32.7916 7.96524 0.0440711 -33.7065 8.31702 0.0546069 -34.608 8.6672 0.0642013 -35.4968 9.01358 0.0729506 -36.3735 9.35425 0.0809388 -37.2387 9.68756 0.0882392 -38.0929 10.0121 0.0949163 -38.5509 10.1301 0.104205 -38.6146 10.0625 0.115798 -38.6707 10.0114 0.126478 -38.7197 9.97496 0.136322 -38.7621 9.95143 0.145397 -38.7984 9.93931 0.153765 -38.8291 9.93725 0.161483 -38.8544 9.94403 0.168599 -38.8748 9.95855 0.175159 -38.8905 9.97983 0.181203 -38.9018 10.007 0.18677 -38.909 10.0392 0.191892 -38.9123 10.0757 0.196601 -38.9119 10.1158 0.200925 -38.9081 10.159 0.20489 -23.838 6.54549 -0.0800526 -24.9254 6.89232 -0.0591425 -25.986 7.26491 -0.0404687 -27.0221 7.6564 -0.0237334 -28.0359 8.06116 -0.0086891 -29.0292 8.47447 0.00487196 -30.0034 8.89238 0.0171251 -30.9598 9.31159 0.0282195 -31.8995 9.72928 0.0382827 -32.8235 10.1431 0.0474246 -33.7325 10.5509 0.0557403 -34.6272 10.9511 0.0633125 -35.5083 11.342 0.0702135 -36.3763 11.7225 0.0765068 -37.2318 12.0914 0.0822481 -37.702 12.2417 0.0902393 -37.7896 12.193 0.100209 -37.8688 12.1565 0.10937 -37.9402 12.1307 0.117789 -38.0044 12.1142 0.125526 -38.0617 12.1056 0.132634 -38.1126 12.1039 0.139164 -38.1576 12.1081 0.145158 -38.1969 12.1172 0.150657 -38.2309 12.1305 0.155697 -38.2598 12.1472 0.160311 -38.284 12.1666 0.164529 -38.3036 12.1882 0.168379 -38.3189 12.2113 0.171886 -38.3301 12.2354 0.175073 -22.8371 7.57902 -0.0686823 -23.9353 8.03829 -0.0507804 -25.0059 8.51257 -0.0347668 -26.0515 8.99658 -0.020398 -27.0737 9.48598 -0.00747 -28.0744 9.97711 0.00418904 -29.0549 10.4669 0.0147252 -30.0164 10.9528 0.0242634 -30.9599 11.4327 0.0329109 -31.8863 11.9045 0.0407605 -32.7964 12.3669 0.0478931 -33.691 12.8183 0.0543788 -34.5705 13.2577 0.0602796 -35.4355 13.6841 0.0656499 -36.2865 14.0966 0.0705377 -36.763 14.2792 0.0773445 -36.868 14.2501 0.0858344 -36.9641 14.2294 0.0936164 -37.0519 14.2159 0.100748 -37.1318 14.2085 0.107283 -37.2044 14.2062 0.113267 -37.2701 14.208 0.118742 -37.3291 14.2131 0.123748 -37.382 14.2208 0.128319 -37.4289 14.2304 0.132487 -37.4702 14.2413 0.136281 -37.5062 14.253 0.139727 -37.5371 14.2649 0.14285 -37.563 14.2767 0.145671 -37.5844 14.2879 0.148212 -21.8454 8.62175 -0.058119 -22.9463 9.17973 -0.0429952 -24.0196 9.744 -0.0294494 -25.0672 10.3105 -0.0172834 -26.091 10.876 -0.00633059 -27.0924 11.4377 0.00355038 -28.0727 11.9931 0.0124801 -29.0331 12.5404 0.0205622 -29.9744 13.0779 0.0278859 -30.8975 13.6041 0.0345289 -31.8032 14.1178 0.0405589 -32.6921 14.6181 0.046035 -33.5648 15.104 0.0510095 -34.4217 15.5748 0.0555283 -35.2634 16.0299 0.0596323 -35.7407 16.2443 0.0653508 -35.8576 16.2348 0.0724813 -35.9652 16.2306 0.0790028 -36.0641 16.2305 0.084965 -36.1548 16.2339 0.0904123 -36.2376 16.2397 0.0953851 -36.3131 16.2473 0.0999197 -36.3816 16.256 0.104049 -36.4433 16.2653 0.107804 -36.4987 16.2745 0.111211 -36.548 16.2833 0.114295 -36.5915 16.2912 0.11708 -36.6294 16.2979 0.119585 -36.6619 16.3029 0.121831 -36.6892 16.3059 0.123836 -20.8579 9.66861 -0.0482019 -21.9545 10.3135 -0.0356744 -23.0236 10.9576 -0.0244429 -24.0669 11.5978 -0.0143483 -25.086 12.2318 -0.00525614 -26.0822 12.8573 0.00294791 -27.0567 13.4727 0.010362 -28.0104 14.0764 0.0170705 -28.9443 14.6673 0.0231467 -29.859 15.2442 0.0286543 -30.7553 15.8063 0.033649 -31.6338 16.3529 0.0381798 -32.495 16.8832 0.0422897 -33.3394 17.3968 0.046017 -34.1674 17.8932 0.0493956 -34.641 18.1386 0.0541059 -34.7649 18.1486 0.059978 -34.8793 18.161 0.0653381 -34.9847 18.175 0.0702276 -35.0817 18.19 0.0746839 -35.1706 18.2053 0.0787406 -35.2518 18.2203 0.0824284 -35.3257 18.2346 0.085775 -35.3925 18.2477 0.0888057 -35.4526 18.2592 0.0915436 -35.5062 18.2688 0.0940098 -35.5535 18.276 0.0962235 -35.5949 18.2807 0.0982026 -35.6305 18.2825 0.0999632 -35.6605 18.2813 0.10152 -19.8705 10.7157 -0.0387965 -20.9566 11.4372 -0.0287229 -22.0154 12.1521 -0.0196845 -23.0486 12.8583 -0.0115568 -24.0574 13.5538 -0.00423387 -25.043 14.2372 0.0023746 -26.0065 14.9072 0.00834632 -26.9486 15.5628 0.0137484 -27.8703 16.2031 0.0186392 -28.7721 16.8272 0.0230696 -29.6546 17.4347 0.0270842 -30.5185 18.025 0.0307222 -31.3642 18.5976 0.0340183 -32.1921 19.1523 0.0370033 -33.0026 19.6886 0.0397046 -33.4684 19.964 0.0434725 -33.5949 19.9928 0.0481689 -33.712 20.0216 0.0524486 -33.8201 20.0498 0.0563451 -33.9196 20.0769 0.0598888 -34.011 20.1025 0.0631071 -34.0944 20.1261 0.0660247 -34.1703 20.1474 0.0686643 -34.2389 20.166 0.0710465 -34.3006 20.1816 0.07319 -34.3555 20.194 0.0751122 -34.4038 20.203 0.0768288 -34.4459 20.2083 0.0783543 -34.4818 20.2098 0.079702 -34.5118 20.2073 0.0808842 -18.8804 11.76 -0.0297875 -19.95 12.5491 -0.0220583 -20.9929 13.3269 -0.0151196 -22.0104 14.0919 -0.00887765 -23.0038 14.8427 -0.00325251 -23.9739 15.5785 0.00182418 -24.9217 16.2982 0.00641136 -25.8478 17.0013 0.01056 -26.7528 17.6872 0.0143147 -27.6375 18.3552 0.0177141 -28.5024 19.0052 0.0207923 -29.3478 19.6366 0.0235796 -30.1743 20.2494 0.0261024 -30.9822 20.8432 0.0283845 -31.7719 21.418 0.0304468 -32.2264 21.7221 0.0333247 -32.3519 21.7688 0.0369111 -32.4681 21.8135 0.0401749 -32.5755 21.8557 0.0431419 -32.6744 21.895 0.0458355 -32.765 21.9312 0.0482768 -32.8478 21.964 0.050485 -32.9229 21.9931 0.0524778 -32.9907 22.0183 0.0542711 -33.0514 22.0394 0.0558794 -33.1051 22.0562 0.0573162 -33.1522 22.0687 0.0585936 -33.1927 22.0766 0.0597231 -33.2268 22.0798 0.0607148 -33.2548 22.0784 0.0615785 -17.8854 12.7994 -0.0210738 -18.9327 13.648 -0.0156082 -19.9542 14.4815 -0.0106997 -20.9511 15.2988 -0.00628285 -21.9242 16.0993 -0.00230191 -22.8741 16.8822 0.00129102 -23.8017 17.6471 0.00453725 -24.7075 18.3936 0.00747263 -25.5921 19.1213 0.0101284 -26.4559 19.83 0.012532 -27.2993 20.5195 0.0147074 -28.1229 21.1897 0.0166759 -28.9269 21.8403 0.0184562 -29.7117 22.4714 0.0200653 -30.4777 23.0829 0.0215179 -30.9177 23.4144 0.0235456 -31.0389 23.4779 0.0260723 -31.1512 23.5376 0.0283692 -31.2549 23.5931 0.0304548 -31.3504 23.6444 0.0323456 -31.4378 23.6912 0.0340567 -31.5175 23.7334 0.0356018 -31.5896 23.7708 0.0369934 -31.6544 23.8032 0.0382428 -31.712 23.8306 0.0393606 -31.7627 23.853 0.0403561 -31.8066 23.8701 0.0412382 -31.8439 23.882 0.0420149 -31.8747 23.8886 0.0426936 -31.8992 23.8899 0.0432812 -16.8838 13.8322 -0.0125643 -17.9032 14.7331 -0.00930669 -18.8982 15.6157 -0.00638034 -19.8693 16.4795 -0.00374668 -20.8173 17.3242 -0.00137273 -21.7427 18.1495 0.000769877 -22.6459 18.9552 0.00270562 -23.5275 19.7411 0.00445578 -24.3877 20.5072 0.00603892 -25.2271 21.2534 0.00747131 -26.0458 21.9795 0.00876727 -26.8443 22.6858 0.00993947 -27.6229 23.372 0.0109991 -28.3818 24.0384 0.0119562 -29.1213 24.6849 0.0128196 -29.544 25.0421 0.0140251 -29.6581 25.1209 0.0155272 -29.7638 25.1945 0.0168918 -29.8614 25.2626 0.0181298 -29.9512 25.3252 0.0192511 -30.0333 25.3822 0.0202648 -30.1079 25.4336 0.0211791 -30.1752 25.4793 0.0220015 -30.2353 25.5192 0.0227387 -30.2884 25.5534 0.023397 -30.3346 25.5818 0.0239822 -30.374 25.6044 0.0244995 -30.4069 25.6212 0.0249536 -30.4333 25.6323 0.0253491 -30.4533 25.6375 0.0256901 -15.8746 14.8574 -0.00417492 -16.8605 15.8039 -0.00309261 -17.8236 16.7296 -0.00212026 -18.7641 17.6344 -0.00124509 -19.6824 18.5183 -0.000456183 -20.5788 19.3813 0.000255843 -21.4535 20.2236 0.000899105 -22.307 21.0452 0.00148066 -23.1393 21.8461 0.00200666 -23.9508 22.6266 0.00248251 -24.7417 23.3866 0.00291296 -25.5122 24.1263 0.00330221 -26.2626 24.8458 0.003654 -26.9929 25.5453 0.00397165 -27.7036 26.2248 0.00425811 -28.1066 26.606 0.00465811 -28.211 26.6985 0.0051565 -28.3079 26.7846 0.00560909 -28.3974 26.8641 0.00601954 -28.4795 26.9371 0.00639114 -28.5545 27.0037 0.0067269 -28.6225 27.0637 0.00702955 -28.6835 27.1174 0.00730158 -28.7376 27.1647 0.00754526 -28.785 27.2057 0.00776267 -28.8257 27.2403 0.00795571 -28.8599 27.2688 0.00812614 -28.8876 27.291 0.00827557 -28.9089 27.3071 0.00840547 -28.924 27.3171 0.00851721 -14.8574 15.8746 0.00417492 -15.8039 16.8605 0.00309261 -16.7296 17.8236 0.00212026 -17.6344 18.7641 0.00124509 -18.5183 19.6824 0.000456183 -19.3813 20.5788 -0.000255843 -20.2236 21.4535 -0.000899105 -21.0452 22.307 -0.00148066 -21.8461 23.1393 -0.00200666 -22.6266 23.9508 -0.00248251 -23.3866 24.7417 -0.00291296 -24.1263 25.5122 -0.00330221 -24.8458 26.2626 -0.003654 -25.5453 26.9929 -0.00397165 -26.2248 27.7036 -0.00425811 -26.606 28.1066 -0.00465811 -26.6985 28.211 -0.0051565 -26.7846 28.3079 -0.00560909 -26.8641 28.3974 -0.00601954 -26.9371 28.4795 -0.00639114 -27.0037 28.5545 -0.0067269 -27.0637 28.6225 -0.00702955 -27.1174 28.6835 -0.00730158 -27.1647 28.7376 -0.00754526 -27.2057 28.785 -0.00776267 -27.2403 28.8257 -0.00795571 -27.2688 28.8599 -0.00812614 -27.291 28.8876 -0.00827557 -27.3071 28.9089 -0.00840547 -27.3171 28.924 -0.00851721 -13.8322 16.8838 0.0125643 -14.7331 17.9032 0.00930669 -15.6157 18.8982 0.00638034 -16.4795 19.8693 0.00374668 -17.3242 20.8173 0.00137273 -18.1495 21.7427 -0.000769877 -18.9552 22.6459 -0.00270562 -19.7411 23.5275 -0.00445578 -20.5072 24.3877 -0.00603892 -21.2534 25.2271 -0.00747131 -21.9795 26.0458 -0.00876727 -22.6858 26.8443 -0.00993947 -23.372 27.6229 -0.0109991 -24.0384 28.3818 -0.0119562 -24.6849 29.1213 -0.0128196 -25.0421 29.544 -0.0140251 -25.1209 29.6581 -0.0155272 -25.1945 29.7638 -0.0168918 -25.2626 29.8614 -0.0181298 -25.3252 29.9512 -0.0192511 -25.3822 30.0333 -0.0202648 -25.4336 30.1079 -0.0211791 -25.4793 30.1752 -0.0220015 -25.5192 30.2353 -0.0227387 -25.5534 30.2884 -0.023397 -25.5818 30.3346 -0.0239822 -25.6044 30.374 -0.0244995 -25.6212 30.4069 -0.0249536 -25.6323 30.4333 -0.0253491 -25.6375 30.4533 -0.0256901 -12.7994 17.8854 0.0210738 -13.648 18.9327 0.0156082 -14.4815 19.9542 0.0106997 -15.2988 20.9511 0.00628285 -16.0993 21.9242 0.00230191 -16.8822 22.8741 -0.00129102 -17.6471 23.8017 -0.00453725 -18.3936 24.7075 -0.00747263 -19.1213 25.5921 -0.0101284 -19.83 26.4559 -0.012532 -20.5195 27.2993 -0.0147074 -21.1897 28.1229 -0.0166759 -21.8403 28.9269 -0.0184562 -22.4714 29.7117 -0.0200653 -23.0829 30.4777 -0.0215179 -23.4144 30.9177 -0.0235456 -23.4779 31.0389 -0.0260723 -23.5376 31.1512 -0.0283692 -23.5931 31.2549 -0.0304548 -23.6444 31.3504 -0.0323456 -23.6912 31.4378 -0.0340567 -23.7334 31.5175 -0.0356018 -23.7708 31.5896 -0.0369934 -23.8032 31.6544 -0.0382428 -23.8306 31.712 -0.0393606 -23.853 31.7627 -0.0403561 -23.8701 31.8066 -0.0412382 -23.882 31.8439 -0.0420149 -23.8886 31.8747 -0.0426936 -23.8899 31.8992 -0.0432812 -11.76 18.8804 0.0297875 -12.5491 19.95 0.0220583 -13.3269 20.9929 0.0151196 -14.0919 22.0104 0.00887765 -14.8427 23.0038 0.00325251 -15.5785 23.9739 -0.00182418 -16.2982 24.9217 -0.00641136 -17.0013 25.8478 -0.01056 -17.6872 26.7528 -0.0143147 -18.3552 27.6375 -0.0177141 -19.0052 28.5024 -0.0207923 -19.6366 29.3478 -0.0235796 -20.2494 30.1743 -0.0261024 -20.8432 30.9822 -0.0283845 -21.418 31.7719 -0.0304468 -21.7221 32.2264 -0.0333247 -21.7688 32.3519 -0.0369111 -21.8135 32.4681 -0.0401749 -21.8557 32.5755 -0.0431419 -21.895 32.6744 -0.0458355 -21.9312 32.765 -0.0482768 -21.964 32.8478 -0.050485 -21.9931 32.9229 -0.0524778 -22.0183 32.9907 -0.0542711 -22.0394 33.0514 -0.0558794 -22.0562 33.1051 -0.0573162 -22.0687 33.1522 -0.0585936 -22.0766 33.1927 -0.0597231 -22.0798 33.2268 -0.0607148 -22.0784 33.2548 -0.0615785 -10.7157 19.8705 0.0387965 -11.4372 20.9566 0.0287229 -12.1521 22.0154 0.0196845 -12.8583 23.0486 0.0115568 -13.5538 24.0574 0.00423387 -14.2372 25.043 -0.0023746 -14.9072 26.0065 -0.00834632 -15.5628 26.9486 -0.0137484 -16.2031 27.8703 -0.0186392 -16.8272 28.7721 -0.0230696 -17.4347 29.6546 -0.0270842 -18.025 30.5185 -0.0307222 -18.5976 31.3642 -0.0340183 -19.1523 32.1921 -0.0370033 -19.6886 33.0026 -0.0397046 -19.964 33.4684 -0.0434725 -19.9928 33.5949 -0.0481689 -20.0216 33.712 -0.0524486 -20.0498 33.8201 -0.0563451 -20.0769 33.9196 -0.0598888 -20.1025 34.011 -0.0631071 -20.1261 34.0944 -0.0660247 -20.1474 34.1703 -0.0686643 -20.166 34.2389 -0.0710465 -20.1816 34.3006 -0.07319 -20.194 34.3555 -0.0751122 -20.203 34.4038 -0.0768288 -20.2083 34.4459 -0.0783543 -20.2098 34.4818 -0.079702 -20.2073 34.5118 -0.0808842 -9.66861 20.8579 0.0482019 -10.3135 21.9545 0.0356744 -10.9576 23.0236 0.0244429 -11.5978 24.0669 0.0143483 -12.2318 25.086 0.00525614 -12.8573 26.0822 -0.00294791 -13.4727 27.0567 -0.010362 -14.0764 28.0104 -0.0170705 -14.6673 28.9443 -0.0231467 -15.2442 29.859 -0.0286543 -15.8063 30.7553 -0.033649 -16.3529 31.6338 -0.0381798 -16.8832 32.495 -0.0422897 -17.3968 33.3394 -0.046017 -17.8932 34.1674 -0.0493956 -18.1386 34.641 -0.0541059 -18.1486 34.7649 -0.059978 -18.161 34.8793 -0.0653381 -18.175 34.9847 -0.0702276 -18.19 35.0817 -0.0746839 -18.2053 35.1706 -0.0787406 -18.2203 35.2518 -0.0824284 -18.2346 35.3257 -0.085775 -18.2477 35.3925 -0.0888057 -18.2592 35.4526 -0.0915436 -18.2688 35.5062 -0.0940098 -18.276 35.5535 -0.0962235 -18.2807 35.5949 -0.0982026 -18.2825 35.6305 -0.0999632 -18.2813 35.6605 -0.10152 -8.62175 21.8454 0.058119 -9.17973 22.9463 0.0429952 -9.744 24.0196 0.0294494 -10.3105 25.0672 0.0172834 -10.876 26.091 0.00633059 -11.4377 27.0924 -0.00355038 -11.9931 28.0727 -0.0124801 -12.5404 29.0331 -0.0205622 -13.0779 29.9744 -0.0278859 -13.6041 30.8975 -0.0345289 -14.1178 31.8032 -0.0405589 -14.6181 32.6921 -0.046035 -15.104 33.5648 -0.0510095 -15.5748 34.4217 -0.0555283 -16.0299 35.2634 -0.0596323 -16.2443 35.7407 -0.0653508 -16.2348 35.8576 -0.0724813 -16.2306 35.9652 -0.0790028 -16.2305 36.0641 -0.084965 -16.2339 36.1548 -0.0904123 -16.2397 36.2376 -0.0953851 -16.2473 36.3131 -0.0999197 -16.256 36.3816 -0.104049 -16.2653 36.4433 -0.107804 -16.2745 36.4987 -0.111211 -16.2833 36.548 -0.114295 -16.2912 36.5915 -0.11708 -16.2979 36.6294 -0.119585 -16.3029 36.6619 -0.121831 -16.3059 36.6892 -0.123836 -7.57902 22.8371 0.0686823 -8.03829 23.9353 0.0507804 -8.51257 25.0059 0.0347668 -8.99658 26.0515 0.020398 -9.48598 27.0737 0.00747 -9.97711 28.0744 -0.00418904 -10.4669 29.0549 -0.0147252 -10.9528 30.0164 -0.0242634 -11.4327 30.9599 -0.0329109 -11.9045 31.8863 -0.0407605 -12.3669 32.7964 -0.0478931 -12.8183 33.691 -0.0543788 -13.2577 34.5705 -0.0602796 -13.6841 35.4355 -0.0656499 -14.0966 36.2865 -0.0705377 -14.2792 36.763 -0.0773445 -14.2501 36.868 -0.0858344 -14.2294 36.9641 -0.0936164 -14.2159 37.0519 -0.100748 -14.2085 37.1318 -0.107283 -14.2062 37.2044 -0.113267 -14.208 37.2701 -0.118742 -14.2131 37.3291 -0.123748 -14.2208 37.382 -0.128319 -14.2304 37.4289 -0.132487 -14.2413 37.4702 -0.136281 -14.253 37.5062 -0.139727 -14.2649 37.5371 -0.14285 -14.2767 37.563 -0.145671 -14.2879 37.5844 -0.148212 -6.54549 23.838 0.0800526 -6.89232 24.9254 0.0591425 -7.26491 25.986 0.0404687 -7.6564 27.0221 0.0237334 -8.06116 28.0359 0.0086891 -8.47447 29.0292 -0.00487196 -8.89238 30.0034 -0.0171251 -9.31159 30.9598 -0.0282195 -9.72928 31.8995 -0.0382827 -10.1431 32.8235 -0.0474246 -10.5509 33.7325 -0.0557403 -10.9511 34.6272 -0.0633125 -11.342 35.5083 -0.0702135 -11.7225 36.3763 -0.0765068 -12.0914 37.2318 -0.0822481 -12.2417 37.702 -0.0902393 -12.193 37.7896 -0.100209 -12.1565 37.8688 -0.10937 -12.1307 37.9402 -0.117789 -12.1142 38.0044 -0.125526 -12.1056 38.0617 -0.132634 -12.1039 38.1126 -0.139164 -12.1081 38.1576 -0.145158 -12.1172 38.1969 -0.150657 -12.1305 38.2309 -0.155697 -12.1472 38.2598 -0.160311 -12.1666 38.284 -0.164529 -12.1882 38.3036 -0.168379 -12.2113 38.3189 -0.171886 -12.2354 38.3301 -0.175073 -5.52777 24.8547 0.0924264 -5.74594 25.9221 0.0682174 -6.00324 26.9637 0.046643 -6.29076 27.982 0.027339 -6.60121 28.9794 0.0100052 -6.92853 29.9576 -0.00560854 -7.26769 30.9182 -0.019712 -7.61445 31.8625 -0.0324826 -7.96524 32.7916 -0.0440711 -8.31702 33.7065 -0.0546069 -8.6672 34.608 -0.0642013 -9.01358 35.4968 -0.0729506 -9.35425 36.3735 -0.0809388 -9.68756 37.2387 -0.0882392 -10.0121 38.0929 -0.0949163 -10.1301 38.5509 -0.104205 -10.0625 38.6146 -0.115798 -10.0114 38.6707 -0.126478 -9.97496 38.7197 -0.136322 -9.95143 38.7621 -0.145397 -9.93931 38.7984 -0.153765 -9.93725 38.8291 -0.161483 -9.94403 38.8544 -0.168599 -9.95855 38.8748 -0.175159 -9.97983 38.8905 -0.181203 -10.007 38.9018 -0.18677 -10.0392 38.909 -0.191892 -10.0757 38.9123 -0.196601 -10.1158 38.9119 -0.200925 -10.159 38.9081 -0.20489 -4.53441 25.8957 0.106048 -4.60455 26.932 0.0781724 -4.73055 27.9441 0.0533967 -4.90082 28.9348 0.031274 -5.10592 29.9063 0.011439 -5.33809 30.8606 -0.00640991 -5.5909 31.799 -0.0225239 -5.85897 32.7231 -0.0371136 -6.13778 33.6338 -0.0503573 -6.42349 34.5321 -0.0624066 -6.71287 35.4188 -0.0733915 -7.00311 36.2946 -0.0834239 -7.29184 37.1601 -0.0926008 -7.577 38.0159 -0.101007 -7.8568 38.8623 -0.108715 -7.94279 39.3011 -0.119433 -7.8576 39.3336 -0.132818 -7.79384 39.3594 -0.145181 -7.74923 39.379 -0.15661 -7.72176 39.3929 -0.167184 -7.70964 39.4016 -0.176971 -7.71126 39.4055 -0.186034 -7.72516 39.4048 -0.194428 -7.75005 39.4 -0.202206 -7.78475 39.3913 -0.209412 -7.82821 39.3789 -0.216087 -7.87945 39.3631 -0.22227 -7.93761 39.344 -0.227996 -8.00189 39.322 -0.233294 -8.07156 39.2972 -0.238195 -3.57668 26.9724 0.12123 -3.47524 27.9638 0.0892176 -3.45083 28.9338 0.0608625 -3.48828 29.8849 0.035611 -3.57531 30.8195 0.0130156 -3.70195 31.7392 -0.00728946 -3.85997 32.6456 -0.0256058 -4.04255 33.5399 -0.0421844 -4.24397 34.4231 -0.0572362 -4.45942 35.2961 -0.0709392 -4.68485 36.1596 -0.0834451 -4.91676 37.0143 -0.0948836 -5.1522 37.8608 -0.105367 -5.38859 38.6994 -0.114991 -5.62373 39.5307 -0.123842 -5.67876 39.9423 -0.136143 -5.57797 39.9351 -0.151513 -5.50424 39.9225 -0.16575 -5.45488 39.9048 -0.178954 -5.42751 39.8825 -0.191212 -5.42002 39.856 -0.202602 -5.43051 39.8256 -0.213194 -5.45728 39.7917 -0.223051 -5.49881 39.7544 -0.232229 -5.55372 39.714 -0.24078 -5.62077 39.6708 -0.248749 -5.69884 39.625 -0.256177 -5.78691 39.5767 -0.263104 -5.88405 39.5262 -0.269563 -5.98941 39.4735 -0.275586 -2.66954 28.0997 0.138376 -2.36738 29.0289 0.101622 -2.16942 29.9408 0.0692082 -2.05553 30.8379 0.0404407 -2.00969 31.7219 0.0147658 -2.01893 32.5946 -0.00826351 -2.07271 33.4571 -0.0290123 -2.16236 34.3105 -0.0477814 -2.28064 35.1557 -0.0648211 -2.42154 35.9933 -0.0803413 -2.57997 36.8239 -0.0945194 -2.7516 37.6482 -0.107506 -2.93277 38.4665 -0.119431 -3.1203 39.2793 -0.130405 -3.31148 40.0868 -0.140523 -3.33731 40.4622 -0.154586 -3.22388 40.4058 -0.172166 -3.14394 40.3455 -0.188498 -3.09434 40.2815 -0.203693 -3.0723 40.2141 -0.217851 -3.07535 40.1438 -0.231058 -3.10127 40.0706 -0.243392 -3.14809 39.995 -0.254925 -3.21406 39.917 -0.265718 -3.29757 39.8369 -0.275827 -3.3972 39.7548 -0.285304 -3.51165 39.6709 -0.294194 -3.63974 39.5853 -0.30254 -3.78041 39.4982 -0.310378 -3.93269 39.4097 -0.317744 -1.83325 29.2978 0.158026 -1.29356 30.1422 0.115738 -0.893482 30.976 0.0786498 -0.60595 31.8008 0.0458782 -0.40972 32.6178 0.0167286 -0.287875 33.4282 -0.00935231 -0.226784 34.2327 -0.0328104 -0.21534 35.032 -0.0540092 -0.244404 35.8266 -0.0732482 -0.30639 36.617 -0.0907761 -0.394948 37.4036 -0.106801 -0.504724 38.1867 -0.1215 -0.631175 38.9665 -0.135021 -0.770419 39.7433 -0.147493 -0.919121 40.5173 -0.159025 -0.918496 40.846 -0.175052 -0.796496 40.7297 -0.195102 -0.715352 40.6111 -0.213783 -0.671384 40.4906 -0.23122 -0.661348 40.3682 -0.247525 -0.682377 40.2442 -0.262795 -0.731922 40.1187 -0.277119 -0.807714 39.9919 -0.290573 -0.907725 39.8638 -0.303227 -1.03014 39.7347 -0.315144 -1.17331 39.6045 -0.326379 -1.33577 39.4734 -0.336983 -1.51618 39.3414 -0.347001 -1.71335 39.2087 -0.356476 -1.92615 39.0752 -0.365443 -1.09578 30.5948 0.180918 -0.270969 31.3241 0.132037 0.367209 32.0535 0.0894714 0.855796 32.7829 0.0520725 1.22336 33.5123 0.0189532 1.49227 34.2417 -0.0105813 1.68033 34.971 -0.0370833 1.80183 35.7004 -0.0609968 1.86843 36.4298 -0.0826836 1.8897 37.1592 -0.102441 1.87358 37.8886 -0.120515 1.82671 38.6179 -0.137112 1.75471 39.3473 -0.152407 1.66231 40.0767 -0.166546 1.55359 40.8061 -0.179656 1.57674 41.0765 -0.19788 1.70182 40.8878 -0.220698 1.77764 40.6992 -0.242019 1.80849 40.5106 -0.261985 1.79812 40.3219 -0.280722 1.74983 40.1333 -0.298339 1.66654 39.9447 -0.314934 1.55084 39.7561 -0.330594 1.40504 39.5674 -0.345395 1.2312 39.3788 -0.359407 1.03118 39.1902 -0.37269 0.806618 39.0016 -0.3853 0.559022 38.8129 -0.397287 0.289741 38.6243 -0.408696 2.41777e-15 38.4357 -0.419568 -27.4004 0.980704 -0.134189 -28.0512 0.241455 -0.0978256 -28.702 -0.330542 -0.066161 -29.3528 -0.768471 -0.0383398 -30.0036 -1.09792 -0.0137021 -30.6544 -1.33894 0.00826886 -31.3052 -1.50746 0.0279838 -31.956 -1.61631 0.0457733 -32.6068 -1.67591 0.0619062 -33.2576 -1.69484 0.0766037 -33.9084 -1.68022 0.0900491 -34.5592 -1.63799 0.102396 -35.21 -1.57319 0.113774 -35.8608 -1.49005 0.124292 -36.5116 -1.39224 0.134045 -36.7517 -1.41235 0.147661 -36.5811 -1.52376 0.164747 -36.4106 -1.5912 0.180712 -36.24 -1.61848 0.195662 -36.0694 -1.60896 0.209692 -35.8989 -1.56557 0.222884 -35.7283 -1.49092 0.235311 -35.5577 -1.38733 0.247037 -35.3872 -1.25684 0.25812 -35.2166 -1.1013 0.268612 -35.046 -0.922354 0.278558 -34.8755 -0.721479 0.288001 -34.7049 -0.500011 0.296976 -34.5343 -0.259154 0.30552 -34.3638 4.32326e-15 0.31366 -26.2403 1.64263 -0.11721 -26.9941 1.15853 -0.0857498 -27.7384 0.799567 -0.0581588 -28.4747 0.541505 -0.033779 -29.2041 0.365303 -0.0120938 -29.9275 0.255805 0.00730843 -30.6456 0.200798 0.0247594 -31.359 0.190332 0.0405296 -32.0683 0.216218 0.0548418 -32.7738 0.27166 0.067881 -33.4758 0.350968 0.0798024 -34.1747 0.449346 0.0907366 -34.8708 0.562723 0.100795 -35.5641 0.687621 0.110073 -36.2549 0.821053 0.118652 -36.5472 0.820869 0.130626 -36.4411 0.711966 0.14564 -36.333 0.63954 0.159628 -36.2232 0.600312 0.172686 -36.1117 0.59139 0.184895 -35.9988 0.610214 0.19633 -35.8846 0.654515 0.207056 -35.7691 0.722268 0.217131 -35.6526 0.811665 0.226607 -35.5351 0.921082 0.235531 -35.4167 1.04906 0.243944 -35.2975 1.19429 0.251885 -35.1775 1.35557 0.259388 -35.0568 1.53183 0.266483 -34.9355 1.72209 0.273198 -25.1684 2.3928 -0.102635 -25.9982 2.12126 -0.0752914 -26.8126 1.94315 -0.0511771 -27.6136 1.84044 -0.0297755 -28.403 1.79876 -0.0106748 -29.1823 1.80649 0.00645758 -29.9524 1.8542 0.0218933 -30.7143 1.9341 0.0358561 -31.4689 2.03972 0.0485323 -32.2167 2.16567 0.0600781 -32.9583 2.30738 0.0706252 -33.6942 2.46098 0.0802861 -34.4247 2.62319 0.0891568 -35.1503 2.79116 0.0973199 -35.8712 2.96245 0.104847 -36.2051 2.98574 0.115354 -36.1526 2.88426 0.128519 -36.0964 2.81269 0.140749 -36.037 2.76822 0.152127 -35.9746 2.74837 0.162729 -35.9096 2.75094 0.172619 -35.8421 2.77394 0.181857 -35.7723 2.81564 0.190493 -35.7005 2.87444 0.198575 -35.6268 2.94893 0.206146 -35.5513 3.03784 0.213244 -35.4742 3.14001 0.219902 -35.3956 3.25439 0.226152 -35.3157 3.38002 0.232022 -35.2345 3.51605 0.237539 -24.1598 3.20622 -0.0899173 -25.0454 3.11431 -0.066101 -25.9117 3.0915 -0.0450057 -26.7613 3.12418 -0.0262196 -27.5959 3.20136 -0.00940952 -28.4173 3.31409 0.0056964 -29.2268 3.455 0.0193226 -30.0254 3.61798 0.0316561 -30.8141 3.7979 0.0428534 -31.5936 3.99046 0.0530473 -32.3647 4.19202 0.0623504 -33.128 4.39945 0.0708595 -33.8838 4.6101 0.0786577 -34.6326 4.82167 0.0858171 -35.3748 5.03217 0.0924004 -35.7411 5.08139 0.101592 -35.7325 4.99099 0.113101 -35.7189 4.92477 0.123763 -35.7008 4.88031 0.133651 -35.6786 4.85551 0.142831 -35.6527 4.84848 0.151361 -35.6234 4.85752 0.159293 -35.5908 4.88112 0.166675 -35.5553 4.91792 0.173549 -35.5171 4.9667 0.179953 -35.4763 5.02634 0.185921 -35.4333 5.09585 0.191485 -35.388 5.17432 0.196673 -35.3407 5.2609 0.201511 -35.2915 5.35487 0.206022 -23.1963 4.0648 -0.0786571 -24.1222 4.12645 -0.0579177 -25.0263 4.23822 -0.039485 -25.9113 4.38973 -0.0230263 -26.7791 4.57252 -0.00826975 -27.6314 4.77963 0.00500907 -28.4697 5.0053 0.016997 -29.295 5.24471 0.0278508 -30.1084 5.4938 0.0377031 -30.9106 5.74915 0.0466667 -31.7026 6.00783 0.0548384 -32.4847 6.26736 0.0623013 -33.2577 6.52559 0.0691277 -34.0219 6.78068 0.0753804 -34.7778 7.03103 0.0811142 -35.1684 7.10778 0.0891227 -35.1951 7.03111 0.0991457 -35.2158 6.9736 0.108404 -35.231 6.9332 0.116964 -35.2412 6.90814 0.124882 -35.2467 6.89679 0.132212 -35.2479 6.89774 0.139 -35.2451 6.90968 0.145287 -35.2386 6.93145 0.151112 -35.2286 6.96202 0.156509 -35.2153 7.00042 0.161509 -35.1991 7.04581 0.166141 -35.1799 7.0974 0.170429 -35.1581 7.15448 0.174398 -35.1338 7.21642 0.178069 -22.2646 4.95515 -0.0685536 -23.2184 5.14928 -0.0505421 -24.149 5.37854 -0.0344909 -25.0588 5.63495 -0.0201291 -25.9498 5.91197 -0.0072332 -26.8236 6.20418 0.00438283 -27.6817 6.50707 0.0148751 -28.5252 6.81682 0.0243756 -29.3552 7.13026 0.0329966 -30.1724 7.44464 0.0408342 -30.9776 7.75766 0.0479714 -31.7714 8.06732 0.0544798 -32.5545 8.37193 0.0604219 -33.3273 8.67001 0.0658522 -34.0901 8.96028 0.0708188 -34.498 9.06547 0.077759 -34.5526 9.00436 0.0864412 -34.6003 8.958 0.0944395 -34.6417 8.92472 0.101811 -34.6773 8.903 0.108608 -34.7075 8.89149 0.114876 -34.7327 8.88899 0.120656 -34.7531 8.8944 0.125986 -34.7691 8.90676 0.130899 -34.7809 8.92518 0.135427 -34.7888 8.94887 0.139597 -34.7931 8.97708 0.143434 -34.7939 9.00918 0.146962 -34.7915 9.04456 0.150201 -34.7859 9.08269 0.153172 -21.3547 5.86722 -0.0593759 -22.3264 6.17648 -0.0438185 -23.274 6.5089 -0.0299252 -24.1998 6.85833 -0.0174744 -25.1056 7.21972 -0.00628172 -25.993 7.58883 0.00380723 -26.8633 7.96214 0.012923 -27.7177 8.33667 0.0211765 -28.5572 8.7099 0.0286627 -29.3826 9.0797 0.0354634 -30.1945 9.44422 0.0416493 -30.9938 9.80192 0.0472821 -31.7808 10.1514 0.0524153 -32.5562 10.4916 0.0570964 -33.3202 10.8215 0.0613668 -33.7391 10.9555 0.0673376 -33.815 10.9111 0.0748043 -33.8834 10.8776 0.0816651 -33.9449 10.8536 0.0879703 -33.9999 10.838 0.0937647 -34.0488 10.8295 0.099089 -34.0921 10.8272 0.10398 -34.13 10.8301 0.1084