<?xml version="1.0"?> 
<VTKFile type="StructuredGrid" version="0.1"> 
<StructuredGrid WholeExtent="0 29 0 29 0 29"> 
<Piece Extent="0 29 0 29 0 29"> 
<PointData>
<DataArray type="Float32" Name="hfield" format="ascii" NumberOfComponents="3"> 
42.9077 2.84217e-12 -6.82121e-13 41.6427 1.69423 -6.03961e-13 40.3625 3.37313 -5.18696e-13 39.0669 5.03669 -4.9738e-13 37.756 6.68493 -3.69482e-13 36.4297 8.31783 -5.82645e-13 35.0882 9.9354 -3.69482e-13 33.7312 11.5376 -2.27374e-13 32.359 13.1245 -1.98952e-13 30.9714 14.6961 -1.13687e-13 29.5685 16.2523 -1.42109e-13 28.1503 17.7932 -5.68434e-14 26.7167 19.3188 0 25.2678 20.8291 5.68434e-14 23.8035 22.324 1.13687e-13 22.324 23.8035 2.34479e-13 20.8291 25.2678 2.70006e-13 19.3188 26.7167 3.12639e-13 17.7932 28.1503 3.41061e-13 16.2523 29.5685 4.26326e-13 14.6961 30.9714 4.54747e-13 13.1245 32.359 5.11591e-13 11.5376 33.7312 6.25278e-13 9.9354 35.0882 6.82121e-13 8.31783 36.4297 9.09495e-13 6.68493 37.756 6.82121e-13 5.03669 39.0669 9.09495e-13 3.37313 40.3625 1.02318e-12 1.69423 41.6427 1.13687e-12 4.54747e-13 42.9077 9.09495e-13 41.6427 -1.69423 -5.77516e-13 40.3482 2.34501e-12 -4.2077e-13 39.0394 1.67996 -3.70605e-13 37.7163 3.34564 -2.17412e-13 36.379 4.99704 -1.49484e-13 35.0274 6.63417 -2.37875e-13 33.6615 8.25703 -2.55211e-13 32.2813 9.86561 -1.67528e-14 30.8868 11.4599 -3.40895e-14 29.4781 13.0399 -2.30046e-14 28.0551 14.6057 7.33454e-14 26.6178 16.1572 1.12852e-13 25.1663 17.6944 6.70936e-14 23.7004 19.2173 7.81785e-14 22.2203 20.726 2.59794e-13 20.726 22.2203 2.19516e-13 19.2173 23.7004 3.44592e-13 17.6944 25.1663 4.16377e-13 16.1572 26.6178 3.74475e-13 14.6057 28.0551 3.89416e-13 13.0399 29.4781 5.18044e-13 11.4599 30.8868 5.89829e-13 9.86561 32.2813 5.47927e-13 8.25703 33.6615 7.33399e-13 6.63417 35.0274 7.4834e-13 4.99704 36.379 9.33812e-13 3.34564 37.7163 7.2138e-13 1.67996 39.0394 7.36321e-13 8.56204e-13 40.3482 9.78637e-13 -1.69423 41.6427 9.93578e-13 40.3625 -3.37313 -3.59225e-13 39.0394 -1.67996 -4.57847e-13 37.7031 2.16982e-12 -3.2199e-13 36.3536 1.66674 -3.7798e-13 34.9909 3.32026 -2.84756e-13 33.6149 4.96056 -1.77321e-13 32.2258 6.58764 -2.72537e-14 30.8234 8.20151 -9.03489e-14 29.4078 9.80216 4.55077e-14 27.979 11.3896 9.60993e-14 26.5369 12.9638 1.46691e-13 25.0817 14.5248 2.54126e-13 23.6132 16.0726 1.34187e-13 22.1315 17.6071 2.132e-13 20.6366 19.1285 3.49057e-13 19.1285 20.6366 3.14687e-13 17.6071 22.1315 4.19177e-13 16.0726 23.6132 4.4906e-13 14.5248 25.0817 4.3631e-13 12.9638 26.5369 4.94615e-13 11.3896 27.979 5.24498e-13 9.80216 29.4078 5.54381e-13 8.20151 30.8234 6.41107e-13 6.58764 32.2258 6.7099e-13 4.96056 33.6149 7.57716e-13 3.32026 34.9909 8.44443e-13 1.66674 36.3536 7.60639e-13 4.90274e-13 37.7031 7.90522e-13 -1.67996 39.0394 1.04778e-12 -3.37313 40.3625 9.63974e-13 39.0669 -5.03669 -2.72463e-14 37.7163 -3.34564 -1.64522e-13 36.3536 -1.66674 -1.75802e-14 34.9787 2.03748e-12 -1.98526e-14 33.5917 1.65458 -9.31792e-14 32.1925 3.29699 3.95516e-14 30.7811 4.92725 1.58071e-13 29.3576 6.54535 1.20272e-13 27.9219 8.15128 1.81948e-13 26.474 9.74506 1.86782e-13 25.014 11.3267 3.05301e-13 23.5418 12.8961 2.81713e-13 22.0575 14.4534 3.14968e-13 20.561 15.9986 2.91379e-13 19.0523 17.5315 4.38321e-13 17.5315 19.0523 3.60121e-13 15.9986 20.561 5.07974e-13 14.4534 22.0575 4.81744e-13 12.8961 23.5418 4.69725e-13 11.3267 25.014 5.14549e-13 9.74506 26.474 6.16217e-13 8.15128 27.9219 6.32619e-13 6.54535 29.3576 5.63757e-13 4.92725 30.7811 6.65425e-13 3.29699 32.1925 6.53406e-13 1.65458 33.5917 6.41387e-13 5.25802e-13 34.9787 7.43054e-13 -1.66674 36.3536 6.17348e-13 -3.34564 37.7163 7.7586e-13 -5.03669 39.0669 8.20684e-13 37.756 -6.68493 -3.63285e-14 36.379 -4.99704 2.57748e-14 34.9909 -3.32026 1.51827e-13 33.5917 -1.65458 2.03272e-13 32.1814 1.77636e-12 1.4103e-13 30.7599 1.64347 2.84846e-13 29.3274 3.27585 2.58131e-13 27.8838 4.89711 2.59839e-13 26.4291 6.50728 3.18389e-13 24.9632 8.10634 3.05885e-13 23.4863 9.6943 3.50225e-13 21.9983 11.2712 3.94565e-13 20.4991 12.8369 4.10483e-13 18.9889 14.3916 4.83244e-13 17.4676 15.9351 4.99162e-13 15.9351 17.4676 5.19241e-13 14.3916 18.9889 5.11505e-13 12.8369 20.4991 5.00216e-13 11.2712 21.9983 5.88404e-13 9.6943 23.4863 5.34483e-13 8.10634 24.9632 5.94249e-13 6.50728 26.4291 6.54014e-13 4.89711 27.8838 6.00093e-13 3.27585 29.3274 6.59859e-13 1.64347 30.7599 6.62782e-13 7.38964e-13 32.1814 6.65704e-13 -1.65458 33.5917 6.11783e-13 -3.32026 34.9909 6.14705e-13 -4.99704 36.379 9.58688e-13 -6.68493 37.756 7.9108e-13 36.4297 -8.31783 1.81963e-13 35.0274 -6.63417 9.52792e-14 33.6149 -4.96056 2.92812e-13 32.1925 -3.29699 2.06128e-13 30.7599 -1.64347 1.90499e-13 29.3174 1.53477e-12 3.02767e-13 27.8648 1.63343 2.58715e-13 26.4021 3.25681 4.27827e-13 24.9294 4.87015 4.5483e-13 23.4467 6.47344 3.96568e-13 21.9539 8.06669 4.23571e-13 20.451 9.64989 4.78995e-13 18.9381 11.223 5.05998e-13 17.4152 12.7862 6.18266e-13 15.8822 14.3392 6.16847e-13 14.3392 15.8822 5.64674e-13 12.7862 17.4152 5.64774e-13 11.223 18.9381 6.18165e-13 9.64989 20.451 6.5024e-13 8.06669 21.9539 6.68104e-13 6.47344 23.4467 6.00702e-13 4.87015 24.9294 6.18566e-13 3.25681 26.4021 6.3643e-13 1.63343 27.8648 6.54294e-13 6.53699e-13 29.3174 6.72158e-13 -1.64347 30.7599 6.33178e-13 -3.29699 32.1925 7.07885e-13 -4.96056 33.6149 7.25749e-13 -6.63417 35.0274 6.8677e-13 -8.31783 36.4297 6.4779e-13 35.0882 -9.9354 2.86568e-13 33.6615 -8.25703 3.92157e-13 32.2258 -6.58764 4.40903e-13 30.7811 -4.92725 3.65304e-13 29.3274 -3.27585 4.10497e-13 27.8648 -1.63343 4.62796e-13 26.3931 1.49925e-12 5.00884e-13 24.9125 1.62444 5.24761e-13 23.4229 3.23989 5.48638e-13 21.9243 4.84636 5.72515e-13 20.4167 6.44384 5.53759e-13 18.9001 8.03232 6.20269e-13 17.3745 9.61183 6.29935e-13 15.8399 11.1823 6.68023e-13 14.2964 12.7439 6.77689e-13 12.7439 14.2964 6.84714e-13 11.1823 15.8399 6.60676e-13 9.61183 17.3745 6.93481e-13 8.03232 18.9001 6.126e-13 6.44384 20.4167 6.02772e-13 4.84636 21.9243 6.63999e-13 3.23989 23.4229 6.96805e-13 1.62444 24.9125 6.72766e-13 5.96856e-13 26.3931 5.91885e-13 -1.63343 27.8648 6.2469e-13 -3.27585 29.3274 7.14339e-13 -4.92725 30.7811 6.90301e-13 -6.58764 32.2258 6.09419e-13 -8.25703 33.6615 5.28538e-13 -9.9354 35.0882 5.61343e-13 33.7312 -11.5376 4.48016e-13 32.2813 -9.86561 4.11924e-13 30.8234 -8.20151 4.82413e-13 29.3576 -6.54535 5.03164e-13 27.8838 -4.89711 5.09704e-13 26.4021 -3.25681 5.2335e-13 24.9125 -1.62444 6.15155e-13 23.4149 1.32161e-12 6.21695e-13 21.9095 1.61651 6.70868e-13 20.396 3.22509 6.91619e-13 18.8747 4.82574 6.83948e-13 17.3454 6.41846 7.04699e-13 15.8082 8.00325 7.82294e-13 14.2631 9.5801 7.1778e-13 12.71 11.149 7.95374e-13 11.149 12.71 7.90543e-13 9.5801 14.2631 7.42367e-13 8.00325 15.8082 7.26165e-13 6.41846 17.3454 7.17068e-13 4.82574 18.8747 6.7955e-13 3.22509 20.396 7.27296e-13 1.61651 21.9095 7.182e-13 5.25802e-13 23.4149 6.5226e-13 -1.62444 24.9125 6.43163e-13 -3.25681 26.4021 5.77223e-13 -4.89711 27.8838 5.11283e-13 -6.54535 29.3576 5.5903e-13 -8.20151 30.8234 6.06776e-13 -9.86561 32.2813 5.40836e-13 -11.5376 33.7312 5.3174e-13 32.359 -13.1245 6.09464e-13 30.8868 -11.4599 5.93338e-13 29.4078 -9.80216 6.30504e-13 27.9219 -8.15128 6.69445e-13 26.4291 -6.50728 6.94175e-13 24.9294 -4.87015 7.11801e-13 23.4229 -3.23989 7.43637e-13 21.9095 -1.61651 7.47051e-13 20.3892 1.27898e-12 7.64676e-13 18.862 1.60964 7.6809e-13 17.328 3.2124 7.99926e-13 15.7871 4.80829 8.03341e-13 14.2393 6.39731 8.49387e-13 12.6846 7.97945 8.2438e-13 11.1231 9.55472 8.27794e-13 9.55472 11.1231 8.60845e-13 7.97945 12.6846 8.31163e-13 6.39731 14.2393 7.80164e-13 4.80829 15.7871 7.50482e-13 3.2124 17.328 7.42116e-13 1.60964 18.862 7.3375e-13 6.53699e-13 20.3892 6.82751e-13 -1.61651 21.9095 6.88596e-13 -3.23989 23.4229 6.09176e-13 -4.87015 24.9294 5.86599e-13 -6.50728 26.4291 5.356e-13 -8.15128 27.9219 5.98288e-13 -9.80216 29.4078 4.90446e-13 -11.4599 30.8868 5.53135e-13 -13.1245 32.359 4.45293e-13 30.9714 -14.6961 7.70912e-13 29.4781 -13.0399 8.58242e-13 27.979 -11.3896 8.6386e-13 26.474 -9.74506 8.39279e-13 24.9632 -8.10634 8.78647e-13 23.4467 -6.47344 8.22092e-13 21.9243 -4.84636 8.65013e-13 20.396 -3.22509 8.72407e-13 18.862 -1.60964 8.58484e-13 17.3222 1.19371e-12 8.87194e-13 15.7765 1.60382 9.01693e-13 14.225 3.20183 9.30403e-13 12.6677 4.79402 9.16481e-13 11.1046 6.38039 9.45191e-13 9.53569 7.96095 9.45479e-13 7.96095 9.53569 9.59569e-13 6.38039 11.1046 9.09301e-13 4.79402 12.6677 8.12848e-13 3.20183 14.225 8.26529e-13 1.60382 15.7765 7.47839e-13 7.53175e-13 17.3222 7.25993e-13 -1.60964 18.862 6.75725e-13 -3.22509 20.396 6.39668e-13 -4.84636 21.9243 5.75189e-13 -6.47344 23.4467 5.39131e-13 -8.10634 24.9632 5.31496e-13 -9.74506 26.474 4.95439e-13 -11.3896 27.979 4.87803e-13 -13.0399 29.4781 3.38059e-13 -14.6961 30.9714 4.72532e-13 29.5685 -16.2523 9.89204e-13 28.0551 -14.6057 9.33964e-13 26.5369 -12.9638 9.35567e-13 25.014 -11.3267 9.94902e-13 23.4863 -9.6943 9.9917e-13 21.9539 -8.06669 1.03186e-12 20.4167 -6.44384 1.0006e-12 18.8747 -4.82574 1.01197e-12 17.328 -3.2124 1.03756e-12 15.7765 -1.60382 9.77876e-13 14.2203 1.27898e-12 1.03188e-12 12.6593 1.59906 1.00062e-12 11.0935 3.19337 1.04042e-12 9.523 4.78291 1.05179e-12 7.94773 6.3677 1.04895e-12 6.3677 7.94773 1.02099e-12 4.78291 9.523 9.55465e-13 3.19337 11.0935 9.16586e-13 1.59906 12.6593 8.67048e-13 5.96856e-13 14.2203 7.81984e-13 -1.60382 15.7765 7.75079e-13 -3.2124 17.328 6.9712e-13 -4.82574 18.8747 6.19161e-13 -6.44384 20.4167 5.98045e-13 -8.06669 21.9539 5.76929e-13 -9.6943 23.4863 4.9897e-13 -11.3267 25.014 4.77854e-13 -12.9638 26.5369 3.99895e-13 -14.6057 28.0551 3.50358e-13 -16.2523 29.5685 3.0082e-13 28.1503 -17.7932 1.12223e-12 26.6178 -16.1572 1.11538e-12 25.0817 -14.5248 1.08011e-12 23.5418 -12.8961 1.12921e-12 21.9983 -11.2712 1.14456e-12 20.451 -9.64989 1.16347e-12 18.9001 -8.03232 1.07934e-12 17.3454 -6.41846 1.11601e-12 15.7871 -4.80829 1.11005e-12 14.225 -3.20183 1.14672e-12 12.6593 -1.59906 1.16207e-12 11.0898 1.3074e-12 1.12769e-12 9.51666 1.59536 1.10751e-12 7.9398 3.18702 1.11576e-12 6.35924 4.77498 1.12401e-12 4.77498 6.35924 1.10461e-12 3.18702 7.9398 1.04071e-12 1.59536 9.51666 9.99007e-13 5.11591e-13 11.0898 9.07568e-13 -1.59906 12.6593 8.09023e-13 -3.20183 14.225 8.09954e-13 -4.80829 15.7871 7.32726e-13 -6.41846 17.3454 6.55497e-13 -8.03232 18.9001 6.35112e-13 -9.64989 20.451 5.15251e-13 -11.2712 21.9983 5.23287e-13 -12.8961 23.5418 3.46583e-13 -14.5248 25.0817 3.97252e-13 -16.1572 26.6178 2.77391e-13 -17.7932 28.1503 2.14373e-13 26.7167 -19.3188 1.26947e-12 25.1663 -17.6944 1.2133e-12 23.6132 -16.0726 1.32945e-12 22.0575 -14.4534 1.27595e-12 20.4991 -12.8369 1.23666e-12 18.9381 -11.223 1.29152e-12 17.3745 -9.61183 1.28243e-12 15.8082 -8.00325 1.284e-12 14.2393 -6.39731 1.27491e-12 12.6677 -4.79402 1.2303e-12 11.0935 -3.19337 1.22831e-12 9.51666 -1.59536 1.25475e-12 7.93716 1.36424e-12 1.23145e-12 6.35501 1.59272 1.22946e-12 4.77022 3.18279 1.23459e-12 3.18279 4.77022 1.18824e-12 1.59272 6.35501 1.12062e-12 4.90274e-13 7.93716 1.04235e-12 -1.59536 9.51666 9.40982e-13 -3.19337 11.0935 9.00011e-13 -4.79402 12.6677 8.16408e-13 -6.39731 14.2393 7.32804e-13 -8.00325 15.8082 6.63412e-13 -9.61183 17.3745 5.58492e-13 -11.223 18.9381 5.10416e-13 -12.8369 20.4991 4.33918e-13 -14.4534 22.0575 3.71631e-13 -16.0726 23.6132 2.52501e-13 -17.6944 25.1663 1.76003e-13 -19.3188 26.7167 1.8477e-13 25.2678 -20.8291 1.45934e-12 23.7004 -19.2173 1.52928e-12 22.1315 -17.6071 1.47043e-12 20.561 -15.9986 1.46976e-12 18.9889 -14.3916 1.38561e-12 17.4152 -12.7862 1.39471e-12 15.8399 -11.1823 1.39137e-12 14.2631 -9.5801 1.42002e-12 12.6846 -7.97945 1.38293e-12 11.1046 -6.38039 1.3565e-12 9.523 -4.78291 1.34074e-12 7.9398 -3.18702 1.33918e-12 6.35501 -1.59272 1.33762e-12 4.76864 1.42109e-12 1.32896e-12 3.18068 1.59113 1.31674e-12 1.59113 3.18068 1.2692e-12 4.54747e-13 4.76864 1.18455e-12 -1.59272 6.35501 1.10878e-12 -3.18702 7.9398 1.00992e-12 -4.78291 9.523 9.55472e-13 -6.38039 11.1046 8.29967e-13 -7.97945 12.6846 7.25778e-13 -9.5801 14.2631 6.358e-13 -11.1823 15.8399 5.95559e-13 -12.7862 17.4152 4.98476e-13 -14.3916 18.9889 4.36919e-13 -15.9986 20.561 3.39836e-13 -17.6071 22.1315 1.78803e-13 -19.2173 23.7004 4.61924e-14 -20.8291 25.2678 5.56902e-14 23.8035 -22.324 1.61013e-12 22.2203 -20.726 1.62898e-12 20.6366 -19.1285 1.60476e-12 19.0523 -17.5315 1.57387e-12 17.4676 -15.9351 1.55898e-12 15.8822 -14.3392 1.53609e-12 14.2964 -12.7439 1.55627e-12 12.71 -11.149 1.50007e-12 11.1231 -9.55472 1.46608e-12 9.53569 -7.96095 1.43386e-12 7.94773 -6.3677 1.44606e-12 6.35924 -4.77498 1.45558e-12 4.77022 -3.18279 1.4438e-12 3.18068 -1.59113 1.43556e-12 1.5906 1.49919e-12 1.40956e-12 5.27578e-13 1.5906 1.35582e-12 -1.59113 3.18068 1.24493e-12 -3.18279 4.77022 1.14058e-12 -4.77498 6.35924 1.04423e-12 -6.3677 7.94773 9.66524e-13 -7.96095 9.53569 9.05698e-13 -9.55472 11.1231 7.72042e-13 -11.149 12.71 6.97005e-13 -12.7439 14.2964 5.65125e-13 -14.3392 15.8822 4.86536e-13 -15.9351 17.4676 3.4755e-13 -17.5315 19.0523 3.0804e-13 -19.1285 20.6366 2.25898e-13 -20.726 22.2203 4.428e-14 -22.324 23.8035 -3.78622e-14 22.324 -23.8035 1.55254e-12 20.726 -22.2203 1.61648e-12 19.1285 -20.6366 1.55964e-12 17.5315 -19.0523 1.57119e-12 15.9351 -17.4676 1.53655e-12 14.3392 -15.8822 1.54543e-12 12.7439 -14.2964 1.43707e-12 11.149 -12.71 1.49125e-12 9.55472 -11.1231 1.49836e-12 7.96095 -9.53569 1.46017e-12 6.3677 -7.94773 1.46017e-12 4.77498 -6.35924 1.46727e-12 3.18279 -4.77022 1.4353e-12 1.59113 -3.18068 1.42464e-12 3.48166e-13 -1.5906 1.41043e-12 -1.5906 1.56852e-12 1.3517e-12 -3.18068 1.59113 1.24656e-12 -4.77022 3.18279 1.15019e-12 -6.35924 4.77498 1.0596e-12 -7.94773 6.3677 9.43245e-13 -9.53569 7.96095 8.52651e-13 -11.1231 9.55472 7.63833e-13 -12.71 11.149 6.37712e-13 -14.2964 12.7439 5.54223e-13 -15.8822 14.3392 4.22773e-13 -17.4676 15.9351 3.19744e-13 -19.0523 17.5315 2.73559e-13 -20.6366 19.1285 8.52651e-14 -22.2203 20.726 3.55271e-15 -23.8035 22.324 -6.39488e-14 20.8291 -25.2678 1.36424e-12 19.2173 -23.7004 1.2812e-12 17.6071 -22.1315 1.31184e-12 15.9986 -20.561 1.32871e-12 14.3916 -18.9889 1.37845e-12 12.7862 -17.4152 1.39266e-12 11.1823 -15.8399 1.35358e-12 9.5801 -14.2631 1.31095e-12 7.97945 -12.6846 1.31095e-12 6.38039 -11.1046 1.33937e-12 4.78291 -9.523 1.33937e-12 3.18702 -7.9398 1.33582e-12 1.59272 -6.35501 1.32161e-12 2.98428e-13 -4.76864 1.3145e-12 -1.59113 -3.18068 1.3145e-12 -3.18068 -1.59113 1.26077e-12 -4.76864 1.54898e-12 1.17595e-12 -6.35501 1.59272 1.06937e-12 -7.9398 3.18702 9.98313e-13 -9.523 4.78291 8.63309e-13 -11.1046 6.38039 7.81597e-13 -12.6846 7.97945 7.10543e-13 -14.2631 9.5801 6.18172e-13 -15.8399 11.1823 5.18696e-13 -17.4152 12.7862 3.97904e-13 -18.9889 14.3916 3.2685e-13 -20.561 15.9986 2.70006e-13 -22.1315 17.6071 1.27898e-13 -23.7004 19.2173 1.13687e-13 -25.2678 20.8291 -2.84217e-14 19.3188 -26.7167 1.10845e-12 17.6944 -25.1663 1.06493e-12 16.0726 -23.6132 1.10489e-12 14.4534 -22.0575 1.12621e-12 12.8369 -20.4991 1.18305e-12 11.223 -18.9381 1.16174e-12 9.61183 -17.3745 1.16529e-12 8.00325 -15.8082 1.18661e-12 6.39731 -14.2393 1.19371e-12 4.79402 -12.6677 1.20792e-12 3.19337 -11.0935 1.18661e-12 1.59536 -9.51666 1.16529e-12 2.77112e-13 -7.93716 1.20082e-12 -1.59272 -6.35501 1.20082e-12 -3.18279 -4.77022 1.23634e-12 -4.77022 -3.18279 1.1795e-12 -6.35501 -1.59272 1.09779e-12 -7.93716 1.59162e-12 1.00897e-12 -9.51666 1.59536 9.23706e-13 -11.0935 3.19337 8.02913e-13 -12.6677 4.79402 7.31859e-13 -14.2393 6.39731 6.75016e-13 -15.8082 8.00325 5.25802e-13 -17.3745 9.61183 5.11591e-13 -18.9381 11.223 3.69482e-13 -20.4991 12.8369 2.41585e-13 -22.0575 14.4534 2.27374e-13 -23.6132 16.0726 1.7053e-13 -25.1663 17.6944 -5.68434e-14 -26.7167 19.3188 -8.52651e-14 17.7932 -28.1503 9.09495e-13 16.1572 -26.6178 9.37028e-13 14.5248 -25.0817 9.91207e-13 12.8961 -23.5418 9.05942e-13 11.2712 -21.9983 9.66338e-13 9.64989 -20.451 9.84102e-13 8.03232 -18.9001 1.0445e-12 6.41846 -17.3454 1.01608e-12 4.80829 -15.7871 1.0445e-12 3.20183 -14.225 1.06581e-12 1.59906 -12.6593 1.03739e-12 2.13163e-13 -11.0898 1.06581e-12 -1.59536 -9.51666 1.12266e-12 -3.18702 -7.9398 1.12266e-12 -4.77498 -6.35924 1.13687e-12 -6.35924 -4.77498 1.08979e-12 -7.9398 -3.18702 1.00542e-12 -9.51666 -1.59536 9.09495e-13 -11.0898 1.59162e-12 8.52651e-13 -12.6593 1.59906 7.81597e-13 -14.225 3.20183 6.82121e-13 -15.7871 4.80829 6.11067e-13 -17.3454 6.41846 4.9738e-13 -18.9001 8.03232 3.97904e-13 -20.451 9.64989 3.55271e-13 -21.9983 11.2712 2.27374e-13 -23.5418 12.8961 1.7053e-13 -25.0817 14.5248 8.52651e-14 -26.6178 16.1572 -2.84217e-14 -28.1503 17.7932 -1.13687e-13 16.2523 -29.5685 6.53699e-13 14.6057 -28.0551 7.74492e-13 12.9638 -26.5369 7.53175e-13 11.3267 -25.014 7.88702e-13 9.6943 -23.4863 7.31859e-13 8.06669 -21.9539 7.81597e-13 6.44384 -20.4167 8.52651e-13 4.82574 -18.8747 8.52651e-13 3.2124 -17.328 8.59757e-13 1.60382 -15.7765 9.23706e-13 2.84217e-13 -14.2203 9.23706e-13 -1.59906 -12.6593 9.66338e-13 -3.19337 -11.0935 9.66338e-13 -4.78291 -9.523 1.00897e-12 -6.3677 -7.94773 1.02318e-12 -7.94773 -6.3677 1.00897e-12 -9.523 -4.78291 9.37916e-13 -11.0935 -3.19337 8.45546e-13 -12.6593 -1.59906 7.60281e-13 -14.2203 1.50635e-12 7.24754e-13 -15.7765 1.60382 5.96856e-13 -17.328 3.2124 5.68434e-13 -18.8747 4.82574 4.83169e-13 -20.4167 6.44384 4.26326e-13 -21.9539 8.06669 3.41061e-13 -23.4863 9.6943 2.84217e-13 -25.014 11.3267 1.42109e-13 -26.5369 12.9638 8.52651e-14 -28.0551 14.6057 -5.68434e-14 -29.5685 16.2523 -5.68434e-14 14.6961 -30.9714 5.11591e-13 13.0399 -29.4781 5.38236e-13 11.3896 -27.979 4.47642e-13 9.74506 -26.474 4.72511e-13 8.10634 -24.9632 6.39488e-13 6.47344 -23.4467 6.32383e-13 4.84636 -21.9243 6.46594e-13 3.22509 -20.396 6.53699e-13 1.60964 -18.862 7.10543e-13 3.97904e-13 -17.3222 7.67386e-13 -1.60382 -15.7765 7.81597e-13 -3.20183 -14.225 8.2423e-13 -4.79402 -12.6677 8.52651e-13 -6.38039 -11.1046 9.23706e-13 -7.96095 -9.53569 9.37916e-13 -9.53569 -7.96095 9.25482e-13 -11.1046 -6.38039 8.41993e-13 -12.6677 -4.79402 7.88702e-13 -14.225 -3.20183 7.24754e-13 -15.7765 -1.60382 6.6791e-13 -17.3222 1.62004e-12 5.82645e-13 -18.862 1.60964 5.11591e-13 -20.396 3.22509 3.97904e-13 -21.9243 4.84636 3.97904e-13 -23.4467 6.47344 3.12639e-13 -24.9632 8.10634 1.7053e-13 -26.474 9.74506 1.7053e-13 -27.979 11.3896 5.68434e-14 -29.4781 13.0399 -5.68434e-14 -30.9714 14.6961 -1.7053e-13 13.1245 -32.359 2.27374e-13 11.4599 -30.8868 2.32703e-13 9.80216 -29.4078 3.48166e-13 8.15128 -27.9219 3.48166e-13 6.50728 -26.4291 4.54747e-13 4.87015 -24.9294 4.1922e-13 3.23989 -23.4229 4.54747e-13 1.61651 -21.9095 5.68434e-13 5.96856e-13 -20.3892 5.68434e-13 -1.60964 -18.862 6.11067e-13 -3.2124 -17.328 6.53699e-13 -4.80829 -15.7871 6.96332e-13 -6.39731 -14.2393 7.67386e-13 -7.97945 -12.6846 7.95808e-13 -9.55472 -11.1231 8.52651e-13 -11.1231 -9.55472 8.54428e-13 -12.6846 -7.97945 7.67386e-13 -14.2393 -6.39731 7.17648e-13 -15.7871 -4.80829 6.53699e-13 -17.328 -3.2124 5.82645e-13 -18.862 -1.60964 5.11591e-13 -20.3892 1.59162e-12 4.54747e-13 -21.9095 1.61651 3.97904e-13 -23.4229 3.23989 3.12639e-13 -24.9294 4.87015 2.55795e-13 -26.4291 6.50728 2.27374e-13 -27.9219 8.15128 1.13687e-13 -29.4078 9.80216 0 -30.8868 11.4599 -5.68434e-14 -32.359 13.1245 -1.13687e-13 11.5376 -33.7312 0 9.86561 -32.2813 1.5099e-13 8.20151 -30.8234 8.17124e-14 6.54535 -29.3576 1.20792e-13 4.89711 -27.8838 1.98952e-13 3.25681 -26.4021 2.98428e-13 1.62444 -24.9125 3.2685e-13 6.96332e-13 -23.4149 3.12639e-13 -1.61651 -21.9095 4.40536e-13 -3.22509 -20.396 4.12115e-13 -4.82574 -18.8747 5.40012e-13 -6.41846 -17.3454 5.96856e-13 -8.00325 -15.8082 6.25278e-13 -9.5801 -14.2631 6.82121e-13 -11.149 -12.71 7.38964e-13 -12.71 -11.149 7.76268e-13 -14.2631 -9.5801 6.6791e-13 -15.8082 -8.00325 6.25278e-13 -17.3454 -6.41846 5.96856e-13 -18.8747 -4.82574 4.54747e-13 -20.396 -3.22509 4.54747e-13 -21.9095 -1.61651 3.97904e-13 -23.4149 1.59162e-12 3.69482e-13 -24.9125 1.62444 2.84217e-13 -26.4021 3.25681 1.7053e-13 -27.8838 4.89711 1.7053e-13 -29.3576 6.54535 5.68434e-14 -30.8234 8.20151 0 -32.2813 9.86561 0 -33.7312 11.5376 -5.68434e-14 9.9354 -35.0882 -2.27374e-13 8.25703 -33.6615 -2.00728e-13 6.58764 -32.2258 -1.1724e-13 4.92725 -30.7811 2.84217e-14 3.27585 -29.3274 6.39488e-14 1.63343 -27.8648 2.84217e-14 1.19371e-12 -26.3931 1.13687e-13 -1.62444 -24.9125 2.13163e-13 -3.23989 -23.4229 2.55795e-13 -4.84636 -21.9243 3.41061e-13 -6.44384 -20.4167 3.97904e-13 -8.03232 -18.9001 4.83169e-13 -9.61183 -17.3745 5.68434e-13 -11.1823 -15.8399 5.68434e-13 -12.7439 -14.2964 6.82121e-13 -14.2964 -12.7439 6.71463e-13 -15.8399 -11.1823 6.03961e-13 -17.3745 -9.61183 5.25802e-13 -18.9001 -8.03232 5.40012e-13 -20.4167 -6.44384 4.26326e-13 -21.9243 -4.84636 3.97904e-13 -23.4229 -3.23989 3.41061e-13 -24.9125 -1.62444 2.84217e-13 -26.3931 1.47793e-12 2.27374e-13 -27.8648 1.63343 1.7053e-13 -29.3274 3.27585 0 -30.7811 4.92725 0 -32.2258 6.58764 5.68434e-14 -33.6615 8.25703 1.7053e-13 -35.0882 9.9354 -1.13687e-13 8.31783 -36.4297 -5.68434e-13 6.63417 -35.0274 -3.33955e-13 4.96056 -33.6149 -4.33431e-13 3.29699 -32.1925 -1.98952e-13 1.64347 -30.7599 -9.9476e-14 1.49214e-12 -29.3174 -1.13687e-13 -1.63343 -27.8648 -2.84217e-14 -3.25681 -26.4021 0 -4.87015 -24.9294 1.42109e-13 -6.47344 -23.4467 1.42109e-13 -8.06669 -21.9539 2.84217e-13 -9.64989 -20.451 3.41061e-13 -11.223 -18.9381 3.97904e-13 -12.7862 -17.4152 4.54747e-13 -14.3392 -15.8822 5.68434e-13 -15.8822 -14.3392 5.86198e-13 -17.4152 -12.7862 5.7554e-13 -18.9381 -11.223 4.68958e-13 -20.451 -9.64989 3.97904e-13 -21.9539 -8.06669 3.69482e-13 -23.4467 -6.47344 3.41061e-13 -24.9294 -4.87015 3.12639e-13 -26.4021 -3.25681 2.27374e-13 -27.8648 -1.63343 1.7053e-13 -29.3174 1.42109e-12 2.27374e-13 -30.7599 1.64347 5.68434e-14 -32.1925 3.29699 5.68434e-14 -33.6149 4.96056 5.68434e-14 -35.0274 6.63417 -5.68434e-14 -36.4297 8.31783 0 6.68493 -37.756 -4.54747e-13 4.99704 -36.379 -5.82645e-13 3.32026 -34.9909 -5.32907e-13 1.65458 -33.5917 -5.40012e-13 1.94689e-12 -32.1814 -2.98428e-13 -1.64347 -30.7599 -3.2685e-13 -3.27585 -29.3274 -1.7053e-13 -4.89711 -27.8838 -8.52651e-14 -6.50728 -26.4291 -2.84217e-14 -8.10634 -24.9632 2.84217e-14 -9.6943 -23.4863 1.7053e-13 -11.2712 -21.9983 1.98952e-13 -12.8369 -20.4991 3.41061e-13 -14.3916 -18.9889 3.69482e-13 -15.9351 -17.4676 4.83169e-13 -17.4676 -15.9351 5.11591e-13 -18.9889 -14.3916 4.61853e-13 -20.4991 -12.8369 4.26326e-13 -21.9983 -11.2712 3.97904e-13 -23.4863 -9.6943 3.41061e-13 -24.9632 -8.10634 2.55795e-13 -26.4291 -6.50728 2.27374e-13 -27.8838 -4.89711 1.7053e-13 -29.3274 -3.27585 1.7053e-13 -30.7599 -1.64347 5.68434e-14 -32.1814 1.53477e-12 5.68434e-14 -33.5917 1.65458 0 -34.9909 3.32026 5.68434e-14 -36.379 4.99704 -1.13687e-13 -37.756 6.68493 -1.13687e-13 5.03669 -39.0669 -1.02318e-12 3.34564 -37.7163 -7.60281e-13 1.66674 -36.3536 -8.95284e-13 2.33769e-12 -34.9787 -6.53699e-13 -1.65458 -33.5917 -5.11591e-13 -3.29699 -32.1925 -5.25802e-13 -4.92725 -30.7811 -3.69482e-13 -6.54535 -29.3576 -3.41061e-13 -8.15128 -27.9219 -2.27374e-13 -9.74506 -26.474 -1.13687e-13 -11.3267 -25.014 0 -12.8961 -23.5418 5.68434e-14 -14.4534 -22.0575 1.7053e-13 -15.9986 -20.561 3.41061e-13 -17.5315 -19.0523 3.97904e-13 -19.0523 -17.5315 4.65405e-13 -20.561 -15.9986 3.69482e-13 -22.0575 -14.4534 3.12639e-13 -23.5418 -12.8961 2.84217e-13 -25.014 -11.3267 3.12639e-13 -26.474 -9.74506 1.7053e-13 -27.9219 -8.15128 1.7053e-13 -29.3576 -6.54535 1.7053e-13 -30.7811 -4.92725 1.7053e-13 -32.1925 -3.29699 1.13687e-13 -33.5917 -1.65458 0 -34.9787 1.25056e-12 0 -36.3536 1.66674 1.13687e-13 -37.7163 3.34564 -1.13687e-13 -39.0669 5.03669 -1.13687e-13 3.37313 -40.3625 -1.25056e-12 1.67996 -39.0394 -1.00897e-12 3.41061e-12 -37.7031 -1.05871e-12 -1.66674 -36.3536 -8.66862e-13 -3.32026 -34.9909 -5.96856e-13 -4.96056 -33.6149 -6.6791e-13 -6.58764 -32.2258 -5.11591e-13 -8.20151 -30.8234 -3.69482e-13 -9.80216 -29.4078 -3.69482e-13 -11.3896 -27.979 -3.12639e-13 -12.9638 -26.5369 -1.98952e-13 -14.5248 -25.0817 -5.68434e-14 -16.0726 -23.6132 1.13687e-13 -17.6071 -22.1315 1.7053e-13 -19.1285 -20.6366 2.84217e-13 -20.6366 -19.1285 3.30402e-13 -22.1315 -17.6071 2.84217e-13 -23.6132 -16.0726 2.27374e-13 -25.0817 -14.5248 2.55795e-13 -26.5369 -12.9638 2.84217e-13 -27.979 -11.3896 1.7053e-13 -29.4078 -9.80216 2.27374e-13 -30.8234 -8.20151 1.7053e-13 -32.2258 -6.58764 5.68434e-14 -33.6149 -4.96056 -5.68434e-14 -34.9909 -3.32026 5.68434e-14 -36.3536 -1.66674 0 -37.7031 1.02318e-12 -1.13687e-13 -39.0394 1.67996 0 -40.3625 3.37313 1.13687e-13 1.69423 -41.6427 -1.36424e-12 4.13181e-12 -40.3482 -1.25411e-12 -1.67996 -39.0394 -1.14397e-12 -3.34564 -37.7163 -1.15108e-12 -4.99704 -36.379 -9.52127e-13 -6.63417 -35.0274 -8.52651e-13 -8.25703 -33.6615 -7.10543e-13 -9.86561 -32.2813 -6.25278e-13 -11.4599 -30.8868 -5.68434e-13 -13.0399 -29.4781 -3.97904e-13 -14.6057 -28.0551 -2.55795e-13 -16.1572 -26.6178 -1.13687e-13 -17.6944 -25.1663 -5.68434e-14 -19.2173 -23.7004 1.7053e-13 -20.726 -22.2203 1.7053e-13 -22.2203 -20.726 2.45137e-13 -23.7004 -19.2173 1.98952e-13 -25.1663 -17.6944 2.27374e-13 -26.6178 -16.1572 1.98952e-13 -28.0551 -14.6057 1.42109e-13 -29.4781 -13.0399 1.13687e-13 -30.8868 -11.4599 1.7053e-13 -32.2813 -9.86561 1.13687e-13 -33.6615 -8.25703 -5.68434e-14 -35.0274 -6.63417 0 -36.379 -4.99704 1.13687e-13 -37.7163 -3.34564 0 -39.0394 -1.67996 -1.13687e-13 -40.3482 1.25056e-12 -1.13687e-13 -41.6427 1.69423 -1.13687e-13 5.00222e-12 -42.9077 -1.59162e-12 -1.69423 -41.6427 -1.49569e-12 -3.37313 -40.3625 -1.40687e-12 -5.03669 -39.0669 -1.13687e-12 -6.68493 -37.756 -1.15108e-12 -8.31783 -36.4297 -8.10019e-13 -9.9354 -35.0882 -8.52651e-13 -11.5376 -33.7312 -7.67386e-13 -13.1245 -32.359 -7.38964e-13 -14.6961 -30.9714 -5.68434e-13 -16.2523 -29.5685 -3.69482e-13 -17.7932 -28.1503 -2.84217e-13 -19.3188 -26.7167 -1.7053e-13 -20.8291 -25.2678 0 -22.324 -23.8035 1.13687e-13 -23.8035 -22.324 1.10134e-13 -25.2678 -20.8291 1.42109e-13 -26.7167 -19.3188 1.13687e-13 -28.1503 -17.7932 1.13687e-13 -29.5685 -16.2523 8.52651e-14 -30.9714 -14.6961 1.13687e-13 -32.359 -13.1245 5.68434e-14 -33.7312 -11.5376 1.13687e-13 -35.0882 -9.9354 5.68434e-14 -36.4297 -8.31783 -1.13687e-13 -37.756 -6.68493 -1.13687e-13 -39.0669 -5.03669 0 -40.3625 -3.37313 1.13687e-13 -41.6427 -1.69423 -1.13687e-13 -42.9077 1.47793e-12 -1.13687e-13 -7.47875 2.04636e-12 1.36424e-12 -6.98932 -0.0263505 1.27365e-12 -6.51644 -0.0692395 1.32516e-12 -6.06009 -0.128667 1.12266e-12 -5.62028 -0.204632 1.01608e-12 -5.19701 -0.297137 1.08713e-12 -4.79027 -0.406179 8.95284e-13 -4.40008 -0.53176 8.81073e-13 -4.02642 -0.673879 7.95808e-13 -3.6693 -0.832537 7.81597e-13 -3.32872 -1.00773 6.53699e-13 -3.00468 -1.19947 5.54223e-13 -2.69718 -1.40774 5.11591e-13 -2.40621 -1.63255 4.40536e-13 -2.13179 -1.8739 3.69482e-13 -1.8739 -2.13179 3.21521e-13 -1.63255 -2.40621 3.8014e-13 -1.40774 -2.69718 3.48166e-13 -1.19947 -3.00468 3.48166e-13 -1.00773 -3.32872 3.55271e-13 -0.832537 -3.6693 3.2685e-13 -0.673879 -4.02642 2.98428e-13 -0.53176 -4.40008 2.84217e-13 -0.406179 -4.79027 3.12639e-13 -0.297137 -5.19701 2.84217e-13 -0.204632 -5.62028 2.27374e-13 -0.128667 -6.06009 1.98952e-13 -0.0692395 -6.51644 1.98952e-13 -0.0263505 -6.98932 2.27374e-13 1.02318e-12 -7.47875 2.84217e-13 -6.98932 0.0263505 1.42199e-12 -6.53183 2.04006e-12 1.19869e-12 -6.08974 -0.0417483 1.20632e-12 -5.66305 -0.0988945 1.18908e-12 -5.25175 -0.171438 1.11145e-12 -4.85586 -0.25938 1.11198e-12 -4.47536 -0.36272 1.01303e-12 -4.11025 -0.481457 9.2118e-13 -3.76055 -0.615592 8.29335e-13 -3.42624 -0.765125 7.30384e-13 -3.10733 -0.930056 6.59856e-13 -2.80382 -1.11038 5.89327e-13 -2.51571 -1.30611 5.4722e-13 -2.24299 -1.51723 4.34058e-13 -1.98568 -1.74376 4.34584e-13 -1.74376 -1.98568 3.24024e-13 -1.51723 -2.24299 3.5995e-13 -1.30611 -2.51571 2.73307e-13 -1.11038 -2.80382 3.11009e-13 -0.930056 -3.10733 3.70028e-13 -0.765125 -3.42624 3.36676e-13 -0.615592 -3.76055 3.03324e-13 -0.481457 -4.11025 3.41026e-13 -0.36272 -4.47536 2.93464e-13 -0.25938 -4.85586 2.45901e-13 -0.171438 -5.25175 2.83603e-13 -0.0988945 -5.66305 2.07619e-13 -0.0417483 -6.08974 3.30586e-13 7.7538e-13 -6.53183 2.83023e-13 0.0263505 -6.98932 1.78617e-13 -6.51644 0.0692395 1.39447e-12 -6.08974 0.0417483 1.1868e-12 -5.67731 1.97159e-12 1.12301e-12 -5.27913 -0.0560056 1.11696e-12 -4.89521 -0.126268 1.00432e-12 -4.52554 -0.210788 9.5208e-13 -4.17013 -0.309566 9.24709e-13 -3.82898 -0.4226 8.83127e-13 -3.50209 -0.549892 7.98913e-13 -3.18946 -0.691441 7.64437e-13 -2.89108 -0.847247 6.66012e-13 -2.60696 -1.01731 6.10219e-13 -2.33709 -1.20163 5.40216e-13 -2.08149 -1.40021 4.56002e-13 -1.84014 -1.61304 3.85999e-13 -1.61304 -1.84014 3.71824e-13 -1.40021 -2.08149 3.89497e-13 -1.20163 -2.33709 3.83189e-13 -1.01731 -2.60696 3.52012e-13 -0.847247 -2.89108 3.42152e-13 -0.691441 -3.18946 3.60713e-13 -0.549892 -3.50209 3.79275e-13 -0.4226 -3.82898 3.12571e-13 -0.309566 -4.17013 3.59554e-13 -0.210788 -4.52554 4.6338e-13 -0.126268 -4.89521 3.96676e-13 -0.0560056 -5.27913 3.58394e-13 8.10019e-13 -5.67731 3.48534e-13 0.0417483 -6.08974 3.95517e-13 0.0692395 -6.51644 3.28813e-13 -6.06009 0.128667 1.33852e-12 -5.66305 0.0988945 1.22553e-12 -5.27913 0.0560056 1.20135e-12 -4.90832 1.91036e-12 1.14785e-12 -4.55063 -0.0691222 1.01443e-12 -4.20606 -0.151361 9.91136e-13 -3.87461 -0.246717 9.85607e-13 -3.55627 -0.355189 9.3034e-13 -3.25105 -0.476778 7.47175e-13 -2.95894 -0.611483 7.55857e-13 -2.67995 -0.759305 7.0059e-13 -2.41408 -0.920244 5.74269e-13 -2.16133 -1.0943 5.61634e-13 -1.92169 -1.28147 4.77945e-13 -1.69517 -1.48176 4.08468e-13 -1.48176 -1.69517 4.02749e-13 -1.28147 -1.92169 3.51543e-13 -1.0943 -2.16133 3.65174e-13 -0.920244 -2.41408 4.07226e-13 -0.759305 -2.67995 3.8533e-13 -0.611483 -2.95894 3.84751e-13 -0.476778 -3.25105 3.55749e-13 -0.355189 -3.55627 2.98326e-13 -0.246717 -3.87461 2.97746e-13 -0.151361 -4.20606 3.6822e-13 -0.0691222 -4.55063 3.39219e-13 5.73763e-13 -4.90832 3.38639e-13 0.0560056 -5.27913 3.66481e-13 0.0988945 -5.66305 3.65901e-13 0.128667 -6.06009 3.08478e-13 -5.62028 0.204632 1.33943e-12 -5.25175 0.171438 1.32643e-12 -4.89521 0.126268 1.23172e-12 -4.55063 0.0691222 1.21783e-12 -4.21804 1.7241