<?xml version="1.0"?> 
<VTKFile type="StructuredGrid" version="0.1"> 
<StructuredGrid WholeExtent="0 29 0 29 0 29"> 
<Piece Extent="0 29 0 29 0 29"> 
<PointData>
<DataArray type="Float32" Name="hfield" format="ascii" NumberOfComponents="3"> 
-17.9234 4.75353e-12 -4.54747e-12 -17.1307 -0.443356 -4.00746e-12 -16.3504 -0.89919 -3.46745e-12 -15.5826 -1.3675 -2.72848e-12 -14.8273 -1.84829 -2.89901e-12 -14.0845 -2.34156 -2.21689e-12 -13.3541 -2.84731 -1.93268e-12 -12.6363 -3.36553 -1.64846e-12 -11.9309 -3.89623 -1.02318e-12 -11.238 -4.43941 -6.82121e-13 -10.5575 -4.99507 -3.41061e-13 -9.88956 -5.56321 1.13687e-13 -9.23407 -6.14383 4.54747e-13 -8.59107 -6.73692 7.95808e-13 -7.96054 -7.34249 1.25056e-12 -7.34249 -7.96054 2.00373e-12 -6.73692 -8.59107 3.2685e-12 -6.14383 -9.23407 4.37694e-12 -5.56321 -9.88956 5.45697e-12 -4.99507 -10.5575 6.70752e-12 -4.43941 -11.238 7.7307e-12 -3.89623 -11.9309 8.86757e-12 -3.36553 -12.6363 1.02318e-11 -2.84731 -13.3541 1.13687e-11 -2.34156 -14.0845 1.25056e-11 -1.84829 -14.8273 1.3415e-11 -1.3675 -15.5826 1.45519e-11 -0.89919 -16.3504 1.54614e-11 -0.443356 -17.1307 1.68257e-11 -1.95115e-11 -17.9234 1.81899e-11 -17.1307 0.443356 -4.51977e-12 -16.362 4.85301e-12 -4.29151e-12 -15.605 -0.454973 -3.80745e-12 -14.8596 -0.921564 -3.35182e-12 -14.1258 -1.39977 -3.46462e-12 -13.4036 -1.8896 -2.46897e-12 -12.6931 -2.39104 -2.3544e-12 -11.9941 -2.9041 -1.61455e-12 -11.3068 -3.42878 -1.21576e-12 -10.6311 -3.96508 -9.87498e-13 -9.96701 -4.51299 -3.04491e-13 -9.31453 -5.07252 3.74565e-14 -8.67368 -5.64367 3.79404e-13 -8.04444 -6.22644 6.07664e-13 -7.42682 -6.82082 1.17698e-12 -6.82082 -7.42682 1.92887e-12 -6.22644 -8.04444 3.23281e-12 -5.64367 -8.67368 4.25252e-12 -5.07252 -9.31453 5.41435e-12 -4.51299 -9.96701 6.12143e-12 -3.96508 -10.6311 7.62432e-12 -3.42878 -11.3068 8.55877e-12 -2.9041 -11.9941 9.60691e-12 -2.39104 -12.6931 1.07687e-11 -1.8896 -13.4036 1.19306e-11 -1.39977 -14.1258 1.2865e-11 -0.921564 -14.8596 1.42542e-11 -0.454973 -15.605 1.51887e-11 -2.00178e-11 -16.362 1.68052e-11 0.443356 -17.1307 1.79671e-11 -16.3504 0.89919 -5.40156e-12 -15.605 0.454973 -4.98767e-12 -14.8704 5.42455e-12 -4.55957e-12 -14.1465 -0.46573 -4.14569e-12 -13.4333 -0.942218 -3.40495e-12 -12.7309 -1.42946 -2.94843e-12 -12.0393 -1.92746 -2.43506e-12 -11.3584 -2.43622 -2.20592e-12 -10.6883 -2.95574 -1.57887e-12 -10.029 -3.48601 -1.0655e-12 -9.38037 -4.02704 -6.08981e-13 -8.74253 -4.57883 -2.66148e-13 -8.11544 -5.14137 7.66862e-14 -7.49911 -5.71467 6.46894e-13 -6.89354 -6.29873 1.10341e-12 -6.29873 -6.89354 1.99612e-12 -5.71467 -7.49911 3.1687e-12 -5.14137 -8.11544 4.35548e-12 -4.57883 -8.74253 5.14436e-12 -4.02704 -9.38037 6.10377e-12 -3.48601 -10.029 7.63162e-12 -2.95574 -10.6883 8.59103e-12 -2.43622 -11.3584 9.66413e-12 -1.92746 -12.0393 1.08509e-11 -1.42946 -12.7309 1.22651e-11 -0.942218 -13.4333 1.32245e-11 -0.46573 -14.1465 1.37291e-11 -2.07234e-11 -14.8704 1.51433e-11 0.454973 -15.605 1.63301e-11 0.89919 -16.3504 1.72895e-11 -15.5826 1.3675 -6.05598e-12 -14.8596 0.921564 -5.26462e-12 -14.1465 0.46573 -4.91379e-12 -13.4432 5.58842e-12 -4.54165e-12 -12.7499 -0.475627 -3.88529e-12 -12.0664 -0.96115 -3.25735e-12 -11.3929 -1.45657 -2.97047e-12 -10.7292 -1.96189 -2.22885e-12 -10.0754 -2.4771 -1.88513e-12 -9.43157 -3.00221 -1.54141e-12 -8.7976 -3.53721 -6.86098e-13 -8.17353 -4.08211 -4.56065e-13 -7.55935 -4.63691 1.15029e-13 -6.95507 -5.20161 6.86123e-13 -6.36069 -5.7762 1.14353e-12 -5.7762 -6.36069 1.82179e-12 -5.20161 -6.95507 2.84879e-12 -4.63691 -7.55935 4.06053e-12 -4.08211 -8.17353 5.21543e-12 -3.53721 -8.7976 6.08611e-12 -3.00221 -9.43157 7.29786e-12 -2.4771 -10.0754 8.62329e-12 -1.96189 -10.7292 9.26659e-12 -1.45657 -11.3929 1.04783e-11 -0.96115 -12.0664 1.14627e-11 -0.475627 -12.7499 1.26744e-11 -2.16644e-11 -13.4432 1.36588e-11 0.46573 -14.1465 1.46432e-11 0.921564 -14.8596 1.56276e-11 1.3675 -15.5826 1.7294e-11 -14.8273 1.84829 -6.48302e-12 -14.1258 1.39977 -5.96078e-12 -13.4333 0.942218 -4.95537e-12 -12.7499 0.475627 -4.59655e-12 -12.0754 5.38947e-12 -4.33721e-12 -11.4101 -0.484663 -3.45259e-12 -10.7537 -0.978361 -3.05114e-12 -10.1064 -1.4811 -2.47916e-12 -9.46814 -1.99287 -2.02086e-12 -8.83891 -2.51367 -1.61941e-12 -8.21871 -3.04351 -9.90589e-13 -7.60754 -3.58239 -5.32295e-13 -7.00541 -4.13031 1.53372e-13 -6.41232 -4.68726 4.97979e-13 -5.82826 -5.25324 1.18365e-12 -5.25324 -5.82826 1.69008e-12 -4.68726 -6.41232 2.95521e-12 -4.13031 -7.00541 3.87927e-12 -3.58239 -7.60754 5.11597e-12 -3.04351 -8.21871 6.01161e-12 -2.51367 -8.83891 7.07778e-12 -1.99287 -9.46814 8.2008e-12 -1.4811 -10.1064 9.21012e-12 -0.978361 -10.7537 1.02195e-11 -0.484663 -11.4101 1.13425e-11 -2.09512e-11 -12.0754 1.21244e-11 0.475627 -12.7499 1.33611e-11 0.942218 -13.4333 1.43704e-11 1.39977 -14.1258 1.56071e-11 1.84829 -14.8273 1.61617e-11 -14.0845 2.34156 -6.91007e-12 -13.4036 1.8896 -6.69247e-12 -12.7309 1.42946 -5.77854e-12 -12.0664 0.96115 -5.1062e-12 -11.4101 0.484663 -4.67544e-12 -10.7619 5.97566e-12 -4.10257e-12 -10.1219 -0.492838 -3.64339e-12 -9.49009 -0.993851 -2.89999e-12 -8.86645 -1.50304 -2.27028e-12 -8.25098 -2.0204 -1.98163e-12 -7.64369 -2.54594 -1.23824e-12 -7.04457 -3.07966 -6.08525e-13 -6.45363 -3.62155 -1.49345e-13 -5.87086 -4.17161 5.37209e-13 -5.29627 -4.72985 1.22376e-12 -4.72985 -5.29627 1.83549e-12 -4.17161 -5.87086 2.83425e-12 -3.62155 -6.45363 3.9538e-12 -3.07966 -7.04457 4.78914e-12 -2.54594 -7.64369 5.99395e-12 -2.0204 -8.25098 6.74402e-12 -1.50304 -8.86645 8.00568e-12 -0.993851 -9.49009 8.81259e-12 -0.492838 -10.1219 9.96056e-12 -2.19167e-11 -10.7619 1.09949e-11 0.484663 -11.4101 1.22565e-11 0.96115 -12.0664 1.30634e-11 1.42946 -12.7309 1.43251e-11 1.8896 -13.4036 1.53594e-11 2.34156 -14.0845 1.61663e-11 -13.3541 2.84731 -7.10974e-12 -12.6931 2.39104 -6.62125e-12 -12.0393 1.92746 -6.43119e-12 -11.3929 1.45657 -5.45953e-12 -10.7537 0.978361 -5.24105e-12 -10.1219 0.492838 -4.32623e-12 -9.4974 5.84421e-12 -3.83774e-12 -8.88021 -0.500153 -3.03662e-12 -8.27034 -1.00762 -2.5197e-12 -7.66778 -1.5224 -2.00279e-12 -7.07254 -2.0445 -1.42904e-12 -6.48461 -2.57391 -6.84756e-13 -5.90399 -3.11064 -2.24689e-13 -5.33069 -3.65468 4.05909e-13 -4.76471 -4.20604 1.15019e-12 -4.20604 -4.76471 1.66826e-12 -3.65468 -5.33069 2.79856e-12 -3.11064 -5.90399 3.80096e-12 -2.57391 -6.48461 4.74652e-12 -2.0445 -7.07254 5.80576e-12 -1.5224 -7.66778 6.86501e-12 -1.00762 -8.27034 7.81056e-12 -0.500153 -8.88021 8.64243e-12 -2.12674e-11 -9.4974 9.81536e-12 0.492838 -10.1219 1.06472e-11 0.978361 -10.7537 1.15928e-11 1.45657 -11.3929 1.27657e-11 1.92746 -12.0393 1.40523e-11 2.39104 -12.6931 1.44295e-11 2.84731 -13.3541 1.54887e-11 -12.6363 3.36553 -7.99153e-12 -11.9941 2.9041 -7.54478e-12 -11.3584 2.43622 -6.54382e-12 -10.7292 1.96189 -6.09708e-12 -10.1064 1.4811 -5.46559e-12 -9.49009 0.993851 -4.83411e-12 -8.88021 0.500153 -4.1742e-12 -8.27679 6.0183e-12 -3.54272e-12 -7.67983 -0.506607 -2.88281e-12 -7.08932 -1.01967 -2.19448e-12 -6.50526 -1.53918 -1.563e-12 -5.92766 -2.06515 -9.8836e-13 -5.35651 -2.59758 -2.43189e-13 -4.79181 -3.13645 3.31452e-13 -4.23357 -3.68179 9.62936e-13 -3.68179 -4.23357 1.84209e-12 -3.13645 -4.79181 2.76287e-12 -2.59758 -5.35651 3.67654e-12 -2.06515 -5.92766 4.64706e-12 -1.53918 -6.50526 5.61757e-12 -1.01967 -7.08932 6.64493e-12 -0.506607 -7.67983 7.38807e-12 -2.16724e-11 -8.27679 8.58596e-12 0.500153 -8.88021 9.55648e-12 0.993851 -9.49009 1.04133e-11 1.4811 -10.1064 1.13838e-11 1.96189 -10.7292 1.25817e-11 2.43622 -11.3584 1.32112e-11 2.9041 -11.9941 1.44091e-11 3.36553 -12.6363 1.50385e-11 -11.9309 3.89623 -8.41857e-12 -11.3068 3.42878 -7.81107e-12 -10.6883 2.95574 -6.9833e-12 -10.0754 2.4771 -6.37935e-12 -9.46814 1.99287 -5.84646e-12 -8.86645 1.50304 -5.08619e-12 -8.27034 1.00762 -4.4254e-12 -7.67983 0.506607 -3.70776e-12 -7.09491 6.08225e-12 -3.04697e-12 -6.51559 -0.512201 -2.49986e-12 -5.94186 -1.02999 -1.7538e-12 -5.37372 -1.55338 -1.06459e-12 -4.81118 -2.08236 -3.75376e-13 -4.25423 -2.61694 3.13838e-13 -3.70287 -3.15711 9.46208e-13 -3.15711 -3.70287 1.78145e-12 -2.61694 -4.25423 2.64192e-12 -2.08236 -4.81118 3.58055e-12 -1.55338 -5.37372 4.60444e-12 -1.02999 -5.94186 5.42939e-12 -0.512201 -6.51559 6.42486e-12 -2.17177e-11 -7.09491 7.47718e-12 0.506607 -7.67983 8.52949e-12 1.00762 -8.27034 9.29759e-12 1.50304 -8.86645 1.04068e-11 1.99287 -9.46814 1.10612e-11 2.4771 -10.0754 1.1943e-11 2.95574 -10.6883 1.30521e-11 3.42878 -11.3068 1.40476e-11 3.89623 -11.9309 1.49294e-11 -11.238 4.43941 -9.07299e-12 -10.6311 3.96508 -8.21236e-12 -10.029 3.48601 -7.56489e-12 -9.43157 3.00221 -6.86058e-12 -8.83891 2.51367 -6.25574e-12 -8.25098 2.0204 -5.55143e-12 -7.66778 1.5224 -4.73343e-12 -7.08932 1.01967 -4.04333e-12 -6.51559 0.512201 -3.35323e-12 -5.94659 6.00409e-12 -2.63471e-12 -5.38233 -0.516934 -1.83092e-12 -4.82279 -1.0386 -1.19766e-12 -4.268 -1.565 -4.5072e-13 -3.71793 -2.09613 1.82537e-13 -3.1726 -2.632 1.04317e-12 -2.632 -3.1726 1.77409e-12 -2.09613 -3.71793 2.66307e-12 -1.565 -4.268 3.62666e-12 -1.0386 -4.82279 4.44814e-12 -0.516934 -5.38233 5.35488e-12 -2.16689e-11 -5.94659 6.37531e-12 0.512201 -6.51559 7.22522e-12 1.01967 -7.08932 7.96143e-12 1.5224 -7.66778 8.98186e-12 2.0204 -8.25098 9.94545e-12 2.51367 -8.83891 1.08522e-11 3.00221 -9.43157 1.17589e-11 3.48601 -10.029 1.26657e-11 3.96508 -10.6311 1.35724e-11 4.43941 -11.238 1.44792e-11 -10.5575 4.99507 -9.61372e-12 -9.96701 4.51299 -8.80194e-12 -9.38037 4.02704 -8.08964e-12 -8.7976 3.53721 -7.34181e-12 -8.21871 3.04351 -6.70766e-12 -7.64369 2.54594 -5.76088e-12 -7.07254 2.0445 -5.05568e-12 -6.50526 1.53918 -4.17995e-12 -5.94186 1.02999 -3.57423e-12 -5.38233 0.516934 -2.8264e-12 -4.82667 6.25278e-12 -2.07857e-12 -4.27488 -0.520806 -1.33074e-12 -3.72697 -1.04548 -5.82907e-13 -3.18292 -1.57404 1.64924e-13 -2.64276 -2.10646 9.12754e-13 -2.10646 -2.64276 1.62107e-12 -1.57404 -3.18292 2.55633e-12 -1.04548 -3.72697 3.40276e-12 -0.520806 -4.27488 4.3771e-12 -2.16085e-11 -4.82667 5.22354e-12 0.516934 -5.38233 6.21208e-12 1.02999 -5.94186 7.0301e-12 1.53918 -6.50526 7.84812e-12 2.0445 -7.07254 8.77982e-12 2.54594 -7.64369 9.59784e-12 3.04351 -8.21871 1.05864e-11 3.53721 -8.7976 1.14612e-11 4.02704 -9.38037 1.23929e-11 4.51299 -9.96701 1.3211e-11 4.99507 -10.5575 1.4029e-11 -9.88956 5.56321 -1.02113e-11 -9.31453 5.07252 -9.35244e-12 -8.74253 4.57883 -8.43675e-12 -8.17353 4.08211 -7.69513e-12 -7.60754 3.58239 -6.80431e-12 -7.04457 3.07966 -6.22612e-12 -6.48461 2.57391 -5.27845e-12 -5.92766 2.06515 -4.58658e-12 -5.37372 1.55338 -3.82365e-12 -4.82279 1.0386 -3.04651e-12 -4.27488 0.520806 -2.24095e-12 -3.72998 6.21014e-12 -1.46381e-12 -3.18809 -0.523818 -6.86672e-13 -2.64921 -1.05065 6.20448e-14 -2.11334 -1.58049 8.67606e-13 -1.58049 -2.11334 1.67411e-12 -1.05065 -2.64921 2.55616e-12 -0.523818 -3.18809 3.42045e-12 -2.15374e-11 -3.72998 4.24922e-12 0.520806 -4.27488 5.09219e-12 1.0386 -4.82279 5.90674e-12 1.55338 -5.37372 6.83498e-12 2.06515 -5.92766 7.67796e-12 2.57391 -6.48461 8.63462e-12 3.07966 -7.04457 9.30706e-12 3.58239 -7.60754 1.03206e-11 4.08211 -8.17353 1.11635e-11 4.57883 -8.74253 1.20065e-11 5.07252 -9.31453 1.28495e-11 5.56321 -9.88956 1.36925e-11 -9.23407 6.14383 -1.04678e-11 -8.67368 5.64367 -9.7857e-12 -8.11544 5.14137 -8.70215e-12 -7.55935 4.63691 -8.10531e-12 -7.00541 4.13031 -7.49781e-12 -6.45363 3.62155 -6.54926e-12 -5.90399 3.11064 -5.68597e-12 -5.35651 2.59758 -4.89373e-12 -4.81118 2.08236 -4.05886e-12 -4.268 1.565 -3.22399e-12 -3.72697 1.04548 -2.38912e-12 -3.18809 0.523818 -1.59689e-12 -2.65136 6.43752e-12 -8.1886e-13 -2.11679 -0.52597 1.60095e-14 -1.58436 -1.05409 8.22457e-13 -1.05409 -1.58436 1.61879e-12 -0.52597 -2.11679 2.43521e-12 -2.16884e-11 -2.65136 3.32446e-12 0.523818 -3.18809 4.12134e-12 1.04548 -3.72697 4.96085e-12 1.565 -4.268 5.88562e-12 2.08236 -4.81118 6.61145e-12 2.59758 -5.35651 7.5078e-12 3.11064 -5.90399 8.29047e-12 3.62155 -6.45363 9.21524e-12 4.13031 -7.00541 9.82738e-12 4.63691 -7.55935 1.0809e-11 5.14137 -8.11544 1.15064e-11 5.64367 -8.67368 1.22606e-11 6.14383 -9.23407 1.3356e-11 -8.59107 6.73692 -1.1037e-11 -8.04444 6.22644 -1.02429e-11 -7.49911 5.71467 -9.16827e-12 -6.95507 5.20161 -8.66469e-12 -6.41232 4.68726 -7.68328e-12 -5.87086 4.17161 -6.78002e-12 -5.33069 3.65468 -5.95848e-12 -4.79181 3.13645 -5.08009e-12 -4.25423 2.61694 -4.29407e-12 -3.71793 2.09613 -3.437e-12 -3.18292 1.57404 -2.57993e-12 -2.64921 1.05065 -1.71575e-12 -2.11679 0.52597 -9.22625e-13 -1.58565 6.62226e-12 -5.84477e-14 -1.05581 -0.52726 7.77308e-13 -0.52726 -1.05581 1.6061e-12 -2.18137e-11 -1.58565 2.40662e-12 0.52597 -2.11679 3.22136e-12 1.05065 -2.64921 3.97214e-12 1.57404 -3.18292 4.84371e-12 2.09613 -3.71793 5.6087e-12 2.61694 -4.25423 6.35949e-12 3.13645 -4.79181 7.23817e-12 3.65468 -5.33069 8.06e-12 4.17161 -5.87086 8.92447e-12 4.68726 -6.41232 9.64683e-12 5.20161 -6.95507 1.03692e-11 5.71467 -7.49911 1.11484e-11 6.22644 -8.04444 1.19844e-11 6.73692 -8.59107 1.27352e-11 -7.96054 7.34249 -1.16914e-11 -7.42682 6.82082 -1.07566e-11 -6.89354 6.29873 -9.70101e-12 -6.36069 5.7762 -8.99937e-12 -5.82826 5.25324 -7.96467e-12 -5.29627 4.72985 -7.2577e-12 -4.76471 4.20604 -6.10309e-12 -4.23357 3.68179 -5.33039e-12 -3.70287 3.15711 -4.57191e-12 -3.1726 2.632 -3.74948e-12 -2.64276 2.10646 -2.76718e-12 -2.11334 1.58049 -1.86303e-12 -1.58436 1.05409 -9.55336e-13 -1.05581 0.52726 -1.4001e-13 -0.527691 6.86319e-12 7.32159e-13 -2.21295e-11 -0.527691 1.56633e-12 0.52726 -1.05581 2.34873e-12 1.05409 -1.58436 3.13602e-12 1.58049 -2.11334 3.91176e-12 2.10646 -2.64276 4.65908e-12 2.632 -3.1726 5.45968e-12 3.15711 -3.70287 6.32069e-12 3.68179 -4.23357 6.96143e-12 4.20604 -4.76471 7.77269e-12 4.72985 -5.29627 8.62659e-12 5.25324 -5.82826 9.36681e-12 5.7762 -6.36069 1.01212e-11 6.29873 -6.89354 1.08757e-11 6.82082 -7.42682 1.1623e-11 7.34249 -7.96054 1.23703e-11 -7.34249 7.96054 -1.20934e-11 -6.82082 7.42682 -1.11497e-11 -6.29873 6.89354 -1.02611e-11 -5.7762 6.36069 -9.25837e-12 -5.25324 5.82826 -8.30624e-12 -4.72985 5.29627 -7.54596e-12 -4.20604 4.76471 -6.55831e-12 -3.68179 4.23357 -5.74474e-12 -3.15711 3.70287 -4.89209e-12 -2.632 3.1726 -3.96128e-12 -2.10646 2.64276 -3.05178e-12 -1.58049 2.11334 -2.20624e-12 -1.05409 1.58436 -1.31095e-12 -0.52726 1.05581 -4.01457e-13 -2.25563e-11 0.527691 4.90274e-13 0.527691 7.28728e-12 1.33094e-12 1.05581 -0.52726 2.10143e-12 1.58436 -1.05409 2.8475e-12 2.11334 -1.58049 3.61311e-12 2.64276 -2.10646 4.35207e-12 3.1726 -2.632 5.1692e-12 3.70287 -3.15711 5.95435e-12 4.23357 -3.68179 6.76437e-12 4.76471 -4.20604 7.41096e-12 5.29627 -4.72985 8.22808e-12 5.82826 -5.25324 8.93152e-12 6.36069 -5.7762 9.77707e-12 6.89354 -6.29873 1.05871e-11 7.42682 -6.82082 1.12834e-11 7.96054 -7.34249 1.21076e-11 -6.73692 8.59107 -1.26761e-11 -6.22644 8.04444 -1.17275e-11 -5.71467 7.49911 -1.09175e-11 -5.20161 6.95507 -9.76286e-12 -4.68726 6.41232 -8.87113e-12 -4.17161 5.87086 -7.99361e-12 -3.65468 5.33069 -7.16938e-12 -3.13645 4.79181 -6.27409e-12 -2.61694 4.25423 -5.37881e-12 -2.09613 3.71793 -4.448e-12 -1.57404 3.18292 -3.51008e-12 -1.05065 2.64921 -2.67164e-12 -0.52597 2.11679 -1.76215e-12 -2.29488e-11 1.58565 -8.66862e-13 0.52726 1.05581 2.84217e-14 1.05581 0.52726 8.72191e-13 1.58565 7.6934e-12 1.65556e-12 2.11679 -0.52597 2.40163e-12 2.64921 -1.05065 3.24718e-12 3.18292 -1.57404 4.03588e-12 3.71793 -2.09613 4.80327e-12 4.25423 -2.61694 5.4996e-12 4.79181 -3.13645 6.32383e-12 5.33069 -3.65468 7.19069e-12 5.87086 -4.17161 7.87281e-12 6.41232 -4.68726 8.78231e-12 6.95507 -5.20161 9.2939e-12 7.49911 -5.71467 1.03739e-11 8.04444 -6.22644 1.10276e-11 8.59107 -6.73692 1.19371e-11 -6.14383 9.23407 -1.31308e-11 -5.64367 8.67368 -1.22782e-11 -5.14137 8.11544 -1.13722e-11 -4.63691 7.55935 -1.03526e-11 -4.13031 7.00541 -9.37206e-12 -3.62155 6.45363 -8.58336e-12 -3.11064 5.90399 -7.68807e-12 -2.59758 5.35651 -6.70752e-12 -2.08236 4.81118 -5.81224e-12 -1.565 4.268 -4.90274e-12 -1.04548 3.72697 -4.02167e-12 -0.523818 3.18809 -3.16902e-12 -2.33227e-11 2.65136 -2.24532e-12 0.52597 2.11679 -1.39266e-12 1.05409 1.58436 -4.26326e-13 1.58436 1.05409 4.20997e-13 2.11679 0.52597 1.22924e-12 2.65136 7.98916e-12 1.98952e-12 3.18809 -0.523818 2.82796e-12 3.72697 -1.04548 3.55271e-12 4.268 -1.565 4.34852e-12 4.81118 -2.08236 5.17275e-12 5.35651 -2.59758 5.91172e-12 5.90399 -3.11064 6.79279e-12 6.45363 -3.62155 7.56017e-12 7.00541 -4.13031 8.12861e-12 7.55935 -4.63691 9.09495e-12 8.11544 -5.14137 1.0175e-11 8.67368 -5.64367 1.06297e-11 9.23407 -6.14383 1.14824e-11 -5.56321 9.88956 -1.35856e-11 -5.07252 9.31453 -1.25624e-11 -4.57883 8.74253 -1.17737e-11 -4.08211 8.17353 -1.09708e-11 -3.58239 7.60754 -9.93339e-12 -3.07966 7.04457 -9.13758e-12 -2.57391 6.48461 -8.12861e-12 -2.06515 5.92766 -7.30438e-12 -1.55338 5.37372 -6.19593e-12 -1.0386 4.82279 -5.45697e-12 -0.520806 4.27488 -4.54747e-12 -2.36646e-11 3.72998 -3.63798e-12 0.523818 3.18809 -2.70006e-12 1.05065 2.64921 -1.76215e-12 1.58049 2.11334 -8.81073e-13 2.11334 1.58049 -3.19744e-14 2.64921 1.05065 7.03437e-13 3.18809 0.523818 1.56319e-12 3.72998 8.03446e-12 2.30216e-12 4.27488 -0.520806 3.18323e-12 4.82279 -1.0386 3.9222e-12 5.37372 -1.55338 4.718e-12 5.92766 -2.06515 5.57066e-12 6.48461 -2.57391 6.30962e-12 7.04457 -3.07966 7.16227e-12 7.60754 -3.58239 8.07177e-12 8.17353 -4.08211 8.75389e-12 8.74253 -4.57883 9.54969e-12 9.31453 -5.07252 1.03455e-11 9.88956 -5.56321 1.10276e-11 -4.99507 10.5575 -1.43245e-11 -4.51299 9.96701 -1.30314e-11 -4.02704 9.38037 -1.21503e-11 -3.53721 8.7976 -1.14184e-11 -3.04351 8.21871 -1.04023e-11 -2.54594 7.64369 -9.57812e-12 -2.0445 7.07254 -8.58336e-12 -1.53918 6.50526 -7.81597e-12 -1.02999 5.94186 -6.79279e-12 -0.516934 5.38233 -5.94014e-12 -2.3757e-11 4.82667 -5.00222e-12 0.520806 4.27488 -4.0643e-12 1.04548 3.72697 -3.21165e-12 1.57404 3.18292 -2.27374e-12 2.10646 2.64276 -1.3074e-12 2.64276 2.10646 -4.12115e-13 3.18292 1.57404 2.84217e-13 3.72697 1.04548 1.1795e-12 4.27488 0.520806 1.90425e-12 4.82667 8.36664e-12 2.72848e-12 5.38233 -0.516934 3.52429e-12 5.94186 -1.02999 4.3201e-12 6.50526 -1.53918 5.22959e-12 7.07254 -2.0445 5.91172e-12 7.64369 -2.54594 6.82121e-12 8.21871 -3.04351 7.61702e-12 8.7976 -3.53721 8.41283e-12 9.38037 -4.02704 9.09495e-12 9.96701 -4.51299 9.89075e-12 10.5575 -4.99507 1.08002e-11 -4.43941 11.238 -1.45519e-11 -3.96508 10.6311 -1.35358e-11 -3.48601 10.029 -1.29745e-11 -3.00221 9.43157 -1.21361e-11 -2.51367 8.83891 -1.08713e-11 -2.0204 8.25098 -1.01039e-11 -1.5224 7.66778 -9.20863e-12 -1.01967 7.08932 -8.2423e-12 -0.512201 6.51559 -7.30438e-12 -2.35056e-11 5.94659 -6.33804e-12 0.516934 5.38233 -5.54223e-12 1.0386 4.82279 -4.54747e-12 1.565 4.268 -3.63798e-12 2.09613 3.71793 -2.72848e-12 2.632 3.1726 -1.93268e-12 3.1726 2.632 -9.87654e-13 3.71793 2.09613 -1.7053e-13 4.268 1.565 6.82121e-13 4.82279 1.0386 1.47793e-12 5.38233 0.516934 2.38742e-12 5.94659 8.17835e-12 3.12639e-12 6.51559 -0.512201 3.9222e-12 7.08932 -1.01967 4.83169e-12 7.66778 -1.5224 5.6275e-12 8.25098 -2.0204 6.48015e-12 8.83891 -2.51367 7.38964e-12 9.43157 -3.00221 8.07177e-12 10.029 -3.48601 8.6402e-12 10.6311 -3.96508 9.77707e-12 11.238 -4.43941 1.03455e-11 -3.89623 11.9309 -1.50067e-11 -3.42878 11.3068 -1.39622e-11 -2.95574 10.6883 -1.35003e-11 -2.4771 10.0754 -1.24629e-11 -1.99287 9.46814 -1.13687e-11 -1.50304 8.86645 -1.05729e-11 -1.00762 8.27034 -9.60654e-12 -0.506607 7.67983 -8.69704e-12 -2.33538e-11 7.09491 -7.81597e-12 0.512201 6.51559 -6.82121e-12 1.02999 5.94186 -5.91172e-12 1.55338 5.37372 -5.05906e-12 2.08236 4.81118 -4.20641e-12 2.61694 4.25423 -3.24007e-12 3.15711 3.70287 -2.38742e-12 3.70287 3.15711 -1.39266e-12 4.25423 2.61694 -5.82645e-13 4.81118 2.08236 3.12639e-13 5.37372 1.55338 1.02318e-12 5.94186 1.02999 1.87583e-12 6.51559 0.512201 2.72848e-12 7.09491 7.83018e-12 3.52429e-12 7.67983 -0.506607 4.43379e-12 8.27034 -1.00762 5.11591e-12 8.86645 -1.50304 6.0254e-12 9.46814 -1.99287 6.9349e-12 10.0754 -2.4771 7.61702e-12 10.6883 -2.95574 8.6402e-12 11.3068 -3.42878 9.32232e-12 11.9309 -3.89623 1.00044e-11 -3.36553 12.6363 -1.55751e-11 -2.9041 11.9941 -1.47296e-11 -2.43622 11.3584 -1.38556e-11 -1.96189 10.7292 -1.2875e-11 -1.4811 10.1064 -1.18519e-11 -0.993851 9.49009 -1.10845e-11 -0.500153 8.88021 -9.86233e-12 -2.30198e-11 8.27679 -9.20863e-12 0.506607 7.67983 -8.35598e-12 1.01967 7.08932 -7.3328e-12 1.53918 6.50526 -6.36646e-12 2.06515 5.92766 -5.45697e-12 2.59758 5.35651 -4.66116e-12 3.13645 4.79181 -3.63798e-12 3.68179 4.23357 -2.78533e-12 4.23357 3.68179 -1.81899e-12 4.79181 3.13645 -1.06581e-12 5.35651 2.59758 -1.7053e-13 5.92766 2.06515 6.82121e-13 6.50526 1.53918 1.59162e-12 7.08932 1.01967 2.33058e-12 7.67983 0.506607 3.29692e-12 8.27679 7.38609e-12 4.09273e-12 8.88021 -0.500153 4.77485e-12 9.49009 -0.993851 5.57066e-12 10.1064 -1.4811 6.59384e-12 10.7292 -1.96189 7.38964e-12 11.3584 -2.43622 8.18545e-12 11.9941 -2.9041 9.09495e-12 12.6363 -3.36553 1.00044e-11 -2.84731 13.3541 -1.61435e-11 -2.39104 12.6931 -1.52411e-11 -1.92746 12.0393 -1.42961e-11 -1.45657 11.3929 -1.32729e-11 -0.978361 10.7537 -1.2335e-11 -0.492838 10.1219 -1.15676e-11 -2.2812e-11 9.4974 -1.06581e-11 0.500153 8.88021 -9.77707e-12 1.00762 8.27034 -8.81073e-12 1.5224 7.66778 -7.90124e-12 2.0445 7.07254 -6.9349e-12 2.57391 6.48461 -6.08225e-12 3.11064 5.90399 -5.05906e-12 3.65468 5.33069 -4.09273e-12 4.20604 4.76471 -3.29692e-12 4.76471 4.20604 -2.23821e-12 5.33069 3.65468 -1.62004e-12 5.90399 3.11064 -6.25278e-13 6.48461 2.57391 2.84217e-13 7.07254 2.0445 1.13687e-12 7.66778 1.5224 1.81899e-12 8.27034 1.00762 2.84217e-12 8.88021 0.500153 3.75167e-12 9.4974 7.18003e-12 4.54747e-12 10.1219 -0.492838 5.22959e-12 10.7537 -0.978361 6.13909e-12 11.3929 -1.45657 6.82121e-12 12.0393 -1.92746 7.7307e-12 12.6931 -2.39104 8.86757e-12 13.3541 -2.84731 9.32232e-12 -2.34156 14.0845 -1.68257e-11 -1.8896 13.4036 -1.54259e-11 -1.42946 12.7309 -1.51488e-11 -0.96115 12.0664 -1.39551e-11 -0.484663 11.4101 -1.29603e-11 -2.21698e-11 10.7619 -1.19087e-11 0.492838 10.1219 -1.10276e-11 0.993851 9.49009 -1.02887e-11 1.50304 8.86645 -9.26548e-12 2.0204 8.25098 -8.41283e-12 2.54594 7.64369 -7.3328e-12 3.07966 7.04457 -6.42331e-12 3.62155 6.45363 -5.68434e-12 4.17161 5.87086 -4.54747e-12 4.72985 5.29627 -3.75167e-12 5.29627 4.72985 -2.84928e-12 5.87086 4.17161 -1.90425e-12 6.45363 3.62155 -1.08002e-12 7.04457 3.07966 -2.27374e-13 7.64369 2.54594 5.68434e-13 8.25098 2.0204 1.7053e-12 8.86645 1.50304 2.38742e-12 9.49009 0.993851 3.41061e-12 10.1219 0.492838 4.09273e-12 10.7619 6.87095e-12 4.88853e-12 11.4101 -0.484663 5.91172e-12 12.0664 -0.96115 6.59384e-12 12.7309 -1.42946 7.95808e-12 13.4036 -1.8896 8.18545e-12 14.0845 -2.34156 9.32232e-12 -1.84829 14.8273 -1.72804e-11 -1.39977 14.1258 -1.61791e-11 -0.942218 13.4333 -1.5504e-11 -0.475627 12.7499 -1.4154e-11 -2.08056e-11 12.0754 -1.33582e-11 0.484663 11.4101 -1.24771e-11 0.978361 10.7537 -1.14824e-11 1.4811 10.1064 -1.05729e-11 1.99287 9.46814 -9.66338e-12 2.51367 8.83891 -8.86757e-12 3.04351 8.21871 -7.90124e-12 3.58239 7.60754 -7.04858e-12 4.13031 7.00541 -6.0254e-12 4.68726 6.41232 -5.11591e-12 5.25324 5.82826 -4.20641e-12 5.82826 5.25324 -3.28981e-12 6.41232 4.68726 -2.27374e-12 7.00541 4.13031 -1.42109e-12 7.60754 3.58239 -7.38964e-13 8.21871 3.04351 1.13687e-13 8.83891 2.51367 1.13687e-12 9.46814 1.99287 1.81899e-12 10.1064 1.4811 2.84217e-12 10.7537 0.978361 3.75167e-12 11.4101 0.484663 4.54747e-12 12.0754 5.94014e-12 5.45697e-12 12.7499 -0.475627 6.36646e-12 13.4333 -0.942218 7.04858e-12 14.1258 -1.39977 7.7307e-12 14.8273 -1.84829 8.86757e-12 -1.3675 15.5826 -1.77351e-11 -0.921564 14.8596 -1.64562e-11 -0.46573 14.1465 -1.56604e-11 -1.99725e-11 13.4432 -1.48361e-11 0.475627 12.7499 -1.38414e-11 0.96115 12.0664 -1.30171e-11 1.45657 11.3929 -1.21645e-11 1.96189 10.7292 -1.13687e-11 2.4771 10.0754 -1.02318e-11 3.00221 9.43157 -9.15179e-12 3.53721 8.7976 -8.52651e-12 4.08211 8.17353 -7.38964e-12 4.63691 7.55935 -6.36646e-12 5.20161 6.95507 -5.57066e-12 5.7762 6.36069 -4.66116e-12 6.36069 5.7762 -3.60245e-12 6.95507 5.20161 -2.72848e-12 7.55935 4.63691 -1.93268e-12 8.17353 4.08211 -1.02318e-12 8.7976 3.53721 0 9.43157 3.00221 5.68434e-13 10.0754 2.4771 1.47793e-12 10.7292 1.96189 2.50111e-12 11.3929 1.45657 3.41061e-12 12.0664 0.96115 4.3201e-12 12.7499 0.475627 5.00222e-12 13.4432 4.9738e-12 6.13909e-12 14.1465 -0.46573 6.59384e-12 14.8596 -0.921564 7.95808e-12 15.5826 -1.3675 8.18545e-12 -0.89919 16.3504 -1.81899e-11 -0.454973 15.605 -1.69749e-11 -1.85669e-11 14.8704 -1.64562e-11 0.46573 14.1465 -1.50067e-11 0.942218 13.4333 -1.4353e-11 1.42946 12.7309 -1.37561e-11 1.92746 12.0393 -1.27329e-11 2.43622 11.3584 -1.15961e-11 2.95574 10.6883 -1.08571e-11 3.48601 10.029 -9.89075e-12 4.02704 9.38037 -8.98126e-12 4.57883 8.74253 -7.84439e-12 5.14137 8.11544 -6.82121e-12 5.71467 7.49911 -5.91172e-12 6.29873 6.89354 -5.00222e-12 6.89354 6.29873 -4.02167e-12 7.49911 5.71467 -3.38218e-12 8.11544 5.14137 -2.50111e-12 8.74253 4.57883 -1.53477e-12 9.38037 4.02704 -4.54747e-13 10.029 3.48601 0 10.6883 2.95574 1.02318e-12 11.3584 2.43622 2.16005e-12 12.0393 1.92746 2.72848e-12 12.7309 1.42946 4.09273e-12 13.4333 0.942218 4.3201e-12 14.1465 0.46573 5.68434e-12 14.8704 4.41247e-12 6.59384e-12 15.605 -0.454973 7.27596e-12 16.3504 -0.89919 8.18545e-12 -0.443356 17.1307 -1.8872e-11 -1.71791e-11 16.362 -1.77138e-11 0.454973 15.605 -1.70388e-11 0.921564 14.8596 -1.56035e-11 1.39977 14.1258 -1.50635e-11 1.8896 13.4036 -1.37561e-11 2.39104 12.6931 -1.30171e-11 2.9041 11.9941 -1.22213e-11 3.42878 11.3068 -1.13687e-11 3.96508 10.6311 -1.03455e-11 4.51299 9.96701 -9.20863e-12 5.07252 9.31453 -8.29914e-12 5.64367 8.67368 -7.27596e-12 6.22644 8.04444 -6.36646e-12 6.82082 7.42682 -5.57066e-12 7.42682 6.82082 -4.56168e-12 8.04444 6.22644 -3.80851e-12 8.67368 5.64367 -2.84217e-12 9.31453 5.07252 -1.98952e-12 9.96701 4.51299 -1.02318e-12 10.6311 3.96508 1.13687e-13 11.3068 3.42878 1.02318e-12 11.9941 2.9041 1.81899e-12 12.6931 2.39104 2.50111e-12 13.4036 1.8896 3.41061e-12 14.1258 1.39977 4.54747e-12 14.8596 0.921564 5.22959e-12 15.605 0.454973 6.59384e-12 16.362 3.22586e-12 7.04858e-12 17.1307 -0.443356 7.7307e-12 -1.49214e-11 17.9234 -1.90994e-11 0.443356 17.1307 -1.82325e-11 0.89919 16.3504 -1.76215e-11 1.3675 15.5826 -1.6513e-11 1.84829 14.8273 -1.53477e-11 2.34156 14.0845 -1.43245e-11 2.84731 13.3541 -1.34719e-11 3.36553 12.6363 -1.27898e-11 3.89623 11.9309 -1.15961e-11 4.43941 11.238 -1.06866e-11 4.99507 10.5575 -9.77707e-12 5.56321 9.88956 -8.98126e-12 6.14383 9.23407 -7.95808e-12 6.73692 8.59107 -6.9349e-12 7.34249 7.96054 -6.13909e-12 7.96054 7.34249 -5.00222e-12 8.59107 6.73692 -4.23483e-12 9.23407 6.14383 -3.18323e-12 9.88956 5.56321 -2.38742e-12 10.5575 4.99507 -1.59162e-12 11.238 4.43941 -4.54747e-13 11.9309 3.89623 2.27374e-13 12.6363 3.36553 1.36424e-12 13.3541 2.84731 2.04636e-12 14.0845 2.34156 2.95586e-12 14.8273 1.84829 4.09273e-12 15.5826 1.3675 5.22959e-12 16.3504 0.89919 5.68434e-12 17.1307 0.443356 6.82121e-12 17.9234 1.89715e-12 7.27596e-12 -200.139 8.6402e-12 -7.04858e-12 -193.247 -6.91139 -6.33094e-12 -186.355 -13.8221 -5.4925e-12 -179.463 -20.732 -4.90274e-12 -172.569 -27.6413 -4.61853e-12 -165.675 -34.5498 -3.89377e-12 -158.78 -41.4576 -3.15481e-12 -151.885 -48.3647 -2.47269e-12 -144.988 -55.271 -1.9611e-12 -138.091 -62.1767 -1.3074e-12 -131.194 -69.0816 -6.25278e-13 -124.295 -75.9858 0 -117.396 -82.8893 5.11591e-13 -110.496 -89.792 1.08002e-12 -103.595 -96.6941 1.76215e-12 -96.6941 -103.595 2.42295e-12 -89.792 -110.496 3.04112e-12 -82.8893 -117.396 3.63798e-12 -75.9858 -124.295 4.12115e-12 -69.0816 -131.194 4.66116e-12 -62.1767 -138.091 5.22959e-12 -55.271 -144.988 5.96856e-12 -48.3647 -151.885 6.59384e-12 -41.4576 -158.78 6.87805e-12 -34.5498 -165.675 7.38964e-12 -27.6413 -172.569 8.29914e-12 -20.732 -179.463 8.6402e-12 -13.8221 -186.355 8.86757e-12 -6.91139 -193.247 9.66338e-12 -1.63709e-11 -200.139 1.04592e-11 -193.247 6.91139 -7.253e-12 -186.355 9.35696e-12 -6.65836e-12 -179.461 -6.91072 -5.80793e-12 -172.567 -13.8208 -5.44066e-12 -165.673 -20.7302 -5.05919e-12 -158.777 -27.6389 -4.20876e-12 -151.881 -34.5469 -3.31569e-12 -144.985 -41.4543 -2.87738e-12 -138.087 -48.361 -2.15484e-12 -131.189 -55.2671 -1.63126e-12 -124.291 -62.1724 -7.66616e-13 -117.391 -69.0771 -1.57768e-13 -110.491 -75.9812 3.37392e-13 -103.591 -82.8845 1.00308e-12 -96.6892 -89.7872 1.61193e-12 -89.7872 -96.6892 2.33867e-12 -82.8845 -103.591 2.82802e-12 -75.9812 -110.491 3.4879e-12 -69.0771 -117.391 3.93462e-12 -62.1724 -124.291 4.55187e-12 -55.2671 -131.189 5.31123e-12 -48.361 -138.087 5.81479e-12 -41.4543 -144.985 6.65941e-12 -34.5469 -151.881 6.76507e-12 -27.6389 -158.777 7.49601e-12 -20.7302 -165.673 8.22694e-12 -13.8208 -172.567 8.50313e-12 -6.91072 -179.461 9.0067e-12 -1.70388e-11 -186.355 9.85132e-12 6.91139 -193.247 1.04686e-11 -186.355 13.8221 -7.91216e-12 -179.461 6.91072 -7.29132e-12 -172.567 8.61888e-12 -6.32231e-12 -165.672 -6.9101 -5.70858e-12 -158.776 -13.8196 -4.94563e-12 -151.879 -20.7285 -4.41005e-12 -144.982 -27.6367 -3.87448e-12 -138.084 -34.5443 -3.16838e-12 -131.186 -41.4513 -2.51912e-12 -124.287 -48.3577 -1.81301e-12 -117.388 -55.2635 -1.07848e-12 -110.487 -62.1686 -5.4291e-13 -103.587 -69.0732 2.76881e-13 -96.6851 -75.9771 7.55612e-13 -89.783 -82.8804 1.51856e-12 -82.8804 -89.783 2.10162e-12 -75.9771 -96.6851 2.8565e-12 -69.0732 -103.587 3.33782e-12 -62.1686 -110.487 4.03231e-12 -55.2635 -117.388 4.58469e-12 -48.3577 -124.287 5.10864e-12 -41.4513 -131.186 5.94524e-12 -34.5443 -138.084 6.55446e-12 -27.6367 -144.982 7.04999e-12 -20.7285 -151.879 7.71606e-12 -13.8196 -158.776 8.26844e-12 -6.9101 -165.672 8.9345e-12 -1.75646e-11 -172.567 9.37319e-12 6.91072 -179.461 1.02666e-11 13.8221 -186.355 1.07053e-11 -179.463 20.732 -8.11657e-12 -172.567 13.8208 -7.27057e-12 -165.672 6.9101 -6.53116e-12 -158.775 8.86757e-12 -5.84859e-12 -151.878 -6.90953 -5.38629e-12 -144.981 -13.8185 -4.66819e-12 -138.082 -20.7269 -4.06379e-12 -131.184 -27.6347 -3.08989e-12 -124.284 -34.542 -2.62759e-12 -117.385 -41.4487 -1.96634e-12 -110.484 -48.3548 -1.30509e-12 -103.583 -55.2603 -6.43835e-13 -96.6816 -62.1653 -1.10043e-14 -89.7795 -6