<?xml version="1.0"?> 
<VTKFile type="StructuredGrid" version="0.1"> 
<StructuredGrid WholeExtent="0 29 0 29 0 29"> 
<Piece Extent="0 29 0 29 0 29"> 
<PointData>
<DataArray type="Float32" Name="hfield" format="ascii" NumberOfComponents="3"> 
2204.64 2.08274e-09 -1.07553e-09 2143.83 91.2345 -1.05457e-09 2081.93 181.382 -1.0335e-09 2018.95 270.444 -1.01251e-09 1954.88 358.418 -9.91534e-10 1889.72 445.306 -9.70431e-10 1823.48 531.108 -9.4947e-10 1756.15 615.823 -9.28395e-10 1687.74 699.451 -9.0742e-10 1618.23 781.992 -8.86374e-10 1547.65 863.448 -8.65342e-10 1475.97 943.816 -8.44338e-10 1403.21 1023.1 -8.2332e-10 1329.36 1101.29 -8.02316e-10 1254.42 1178.4 -7.81284e-10 1178.4 1254.42 -7.45576e-10 1101.29 1329.36 -6.95245e-10 1023.1 1403.21 -6.44903e-10 943.816 1475.97 -5.9454e-10 863.448 1547.65 -5.44219e-10 781.992 1618.23 -4.93856e-10 699.451 1687.74 -4.43521e-10 615.823 1756.15 -3.93143e-10 531.108 1823.48 -3.42823e-10 445.306 1889.72 -2.92459e-10 358.418 1954.88 -2.42153e-10 270.444 2018.95 -1.9179e-10 181.382 2081.93 -1.41426e-10 91.2345 2143.83 -9.10632e-11 -4.54747e-10 2204.64 -4.07567e-11 2143.83 -91.2345 -1.04535e-09 2080.92 2.16626e-09 -1.02317e-09 2017 90.2228 -1.00103e-09 1952.07 179.434 -9.78818e-10 1886.13 267.633 -9.56659e-10 1819.17 354.821 -9.34464e-10 1751.21 440.997 -9.12326e-10 1682.23 526.162 -8.90117e-10 1612.24 610.315 -8.67958e-10 1541.24 693.456 -8.4577e-10 1469.23 775.585 -8.23611e-10 1396.2 856.703 -8.01452e-10 1322.16 936.809 -7.79292e-10 1247.12 1015.9 -7.57119e-10 1171.06 1093.99 -7.34945e-10 1093.99 1171.06 -6.99213e-10 1015.9 1247.12 -6.49861e-10 936.809 1322.16 -6.006e-10 856.703 1396.2 -5.51306e-10 775.585 1469.23 -5.0202e-10 693.456 1541.24 -4.52705e-10 610.315 1612.24 -4.0339e-10 526.162 1682.23 -3.54075e-10 440.997 1751.21 -3.04817e-10 354.821 1819.17 -2.55517e-10 267.633 1886.13 -2.06202e-10 179.434 1952.07 -1.56915e-10 90.2228 2017 -1.07601e-10 -4.60517e-10 2080.92 -5.82857e-11 -91.2345 2143.83 -8.99924e-12 2081.93 -181.382 -1.01516e-09 2017 -90.2228 -9.91824e-10 1951.13 2.2435e-09 -9.68517e-10 1884.33 89.2861 -9.45156e-10 1816.59 177.635 -9.21855e-10 1747.91 265.048 -8.98561e-10 1678.29 351.524 -8.7519e-10 1607.74 437.063 -8.51853e-10 1536.25 521.666 -8.28517e-10 1463.83 605.331 -8.05209e-10 1390.47 688.06 -7.8188e-10 1316.17 769.852 -7.58537e-10 1240.93 850.708 -7.35236e-10 1164.76 930.627 -7.11921e-10 1087.65 1009.61 -6.88592e-10 1009.61 1087.65 -6.5279e-10 930.627 1164.76 -6.04517e-10 850.708 1240.93 -5.5629e-10 769.852 1316.17 -5.0803e-10 688.06 1390.47 -4.59778e-10 605.331 1463.83 -4.11512e-10 521.666 1536.25 -3.63245e-10 437.063 1607.74 -3.15007e-10 351.524 1678.29 -2.66741e-10 265.048 1747.91 -2.18474e-10 177.635 1816.59 -1.70279e-10 89.2861 1884.33 -1.21984e-10 -4.63785e-10 1951.13 -7.37462e-11 -90.2228 2017 -2.54513e-11 -181.382 2081.93 2.27583e-11 2018.95 -270.444 -9.8494e-10 1952.07 -179.434 -9.60507e-10 1884.33 -89.2861 -9.35958e-10 1815.72 2.31663e-09 -9.11497e-10 1746.26 88.4243 -8.8703e-10 1675.93 175.987 -8.62516e-10 1604.74 262.688 -8.38046e-10 1532.69 348.526 -8.13561e-10 1459.78 433.504 -7.89105e-10 1386.01 517.619 -7.64627e-10 1311.37 600.872 -7.40149e-10 1235.88 683.264 -7.15664e-10 1159.52 764.794 -6.91194e-10 1082.3 845.462 -6.66723e-10 1004.21 925.269 -6.42253e-10 925.269 1004.21 -6.06399e-10 845.462 1082.3 -5.59183e-10 764.794 1159.52 -5.11987e-10 683.264 1235.88 -4.64754e-10 600.872 1311.37 -4.17572e-10 517.619 1386.01 -3.70347e-10 433.504 1459.78 -3.23143e-10 348.526 1532.69 -2.75939e-10 262.688 1604.74 -2.28735e-10 175.987 1675.93 -1.81546e-10 88.4243 1746.26 -1.34314e-10 -4.62933e-10 1815.72 -8.70814e-11 -89.2861 1884.33 -3.98634e-11 -179.434 1952.07 7.29774e-12 -270.444 2018.95 5.45157e-11 1954.88 -358.418 -9.54667e-10 1886.13 -267.633 -9.29074e-10 1816.59 -177.635 -9.0345e-10 1746.26 -88.4243 -8.77806e-10 1675.15 2.38492e-09 -8.52197e-10 1603.25 87.6374 -8.26543e-10 1530.56 174.488 -8.00923e-10 1457.08 260.552 -7.7529e-10 1382.82 345.829 -7.49657e-10 1307.78 430.319 -7.24031e-10 1231.94 514.022 -6.98404e-10 1155.32 596.938 -6.72778e-10 1077.91 679.068 -6.47138e-10 999.717 760.41 -6.21497e-10 920.735 840.966 -5.95913e-10 840.966 920.735 -5.5999e-10 760.41 999.717 -5.13832e-10 679.068 1077.91 -4.67691e-10 596.938 1155.32 -4.215e-10 514.022 1231.94 -3.75344e-10 430.319 1307.78 -3.29189e-10 345.829 1382.82 -2.83041e-10 260.552 1457.08 -2.36843e-10 174.488 1530.56 -1.90716e-10 87.6374 1603.25 -1.44532e-10 -4.59636e-10 1675.15 -9.84051e-11 -88.4243 1746.26 -5.22355e-11 -177.635 1816.59 -6.06592e-12 -267.633 1886.13 4.00752e-11 -358.418 1954.88 8.62448e-11 1889.72 -445.306 -9.24507e-10 1819.17 -354.821 -8.9773e-10 1747.91 -265.048 -8.7092e-10 1675.93 -175.987 -8.44189e-10 1603.25 -87.6374 -8.17404e-10 1529.85 2.4483e-09 -7.90608e-10 1455.74 86.9255 -7.63837e-10 1380.91 173.139 -7.37026e-10 1305.38 258.641 -7.10244e-10 1229.13 343.431 -6.83455e-10 1152.17 427.508 -6.56681e-10 1074.5 510.874 -6.29899e-10 996.12 593.528 -6.0311e-10 917.025 675.471 -5.76314e-10 837.219 756.701 -5.49546e-10 756.701 837.219 -5.13585e-10 675.471 917.025 -4.68482e-10 593.528 996.12 -4.23373e-10 510.874 1074.5 -3.78245e-10 427.508 1152.17 -3.33117e-10 343.431 1229.13 -2.88031e-10 258.641 1305.38 -2.42896e-10 173.139 1380.91 -1.97789e-10 86.9255 1455.74 -1.52682e-10 -4.49859e-10 1529.85 -1.07547e-10 -87.6374 1603.25 -6.24255e-11 -175.987 1675.93 -1.73185e-11 -265.048 1747.91 2.776e-11 -354.821 1819.17 7.29096e-11 -445.306 1889.72 1.18031e-10 1823.48 -531.108 -8.9429e-10 1751.21 -440.997 -8.66326e-10 1678.29 -351.524 -8.38416e-10 1604.74 -262.688 -8.10498e-10 1530.56 -174.488 -7.82568e-10 1455.74 -86.9255 -7.54584e-10 1380.28 2.50736e-09 -7.26668e-10 1304.18 86.2885 -6.98741e-10 1227.45 171.94 -6.70789e-10 1150.07 256.955 -6.4288e-10 1072.07 341.332 -6.14936e-10 993.422 425.073 -5.86984e-10 914.14 508.177 -5.59075e-10 834.221 590.643 -5.3113e-10 753.666 672.473 -5.03192e-10 672.473 753.666 -4.67192e-10 590.643 834.221 -4.23118e-10 508.177 914.14 -3.79035e-10 425.073 993.422 -3.3498e-10 341.332 1072.07 -2.90911e-10 256.955 1150.07 -2.46838e-10 171.94 1227.45 -2.02779e-10 86.2885 1304.18 -1.58692e-10 -4.38149e-10 1380.28 -1.14648e-10 -86.9255 1455.74 -7.06038e-11 -174.488 1530.56 -2.65027e-11 -262.688 1604.74 1.75416e-11 -351.524 1678.29 6.16428e-11 -440.997 1751.21 1.05659e-10 -531.108 1823.48 1.49731e-10 1756.15 -615.823 -8.64087e-10 1682.23 -526.162 -8.35021e-10 1607.74 -437.063 -8.05927e-10 1532.69 -348.526 -7.76822e-10 1457.08 -260.552 -7.47739e-10 1380.91 -173.139 -7.1865e-10 1304.18 -86.2885 -6.89553e-10 1226.88 2.56216e-09 -6.6046e-10 1149.03 85.7265 -6.31377e-10 1070.61 170.891 -6.02277e-10 991.623 255.493 -5.73205e-10 912.079 339.534 -5.44112e-10 831.973 423.012 -5.15018e-10 751.305 505.928 -4.85925e-10 670.075 588.283 -4.56846e-10 588.283 670.075 -4.20779e-10 505.928 751.305 -3.77768e-10 423.012 831.973 -3.34742e-10 339.534 912.079 -2.91718e-10 255.493 991.623 -2.48697e-10 170.891 1070.61 -2.05666e-10 85.7265 1149.03 -1.62663e-10 -4.24734e-10 1226.88 -1.19632e-10 -86.2885 1304.18 -7.66001e-11 -173.139 1380.91 -3.359e-11 -260.552 1457.08 9.44849e-12 -348.526 1532.69 5.24728e-11 -437.063 1607.74 9.54829e-11 -526.162 1682.23 1.38507e-10 -615.823 1756.15 1.81517e-10 1687.74 -699.451 -8.33899e-10 1612.24 -610.315 -8.03662e-10 1536.25 -521.666 -7.73383e-10 1459.78 -433.504 -7.43145e-10 1382.82 -345.829 -7.12935e-10 1305.38 -258.641 -6.82654e-10 1227.45 -171.94 -6.52452e-10 1149.03 -85.7265 -6.22192e-10 1070.12 2.61412e-09 -5.9194e-10 990.724 85.2394 -5.61702e-10 910.843 169.992 -5.3146e-10 830.474 254.257 -5.01218e-10 749.619 338.035 -4.70962e-10 668.276 421.326 -4.40735e-10 586.447 504.13 -4.10493e-10 504.13 586.447 -3.74386e-10 421.326 668.276 -3.32406e-10 338.035 749.619 -2.90443e-10 254.257 830.474 -2.4846e-10 169.992 910.843 -2.06488e-10 85.2394 990.724 -1.64501e-10 -4.07454e-10 1070.12 -1.22539e-10 -85.7265 1149.03 -8.05493e-11 -171.94 1227.45 -3.85734e-11 -258.641 1305.38 3.39537e-12 -345.829 1382.82 4.53428e-11 -433.504 1459.78 8.73471e-11 -521.666 1536.25 1.29337e-10 -610.315 1612.24 1.71313e-10 -699.451 1687.74 2.13289e-10 1618.23 -781.992 -8.03682e-10 1541.24 -693.456 -7.72275e-10 1463.83 -605.331 -7.40912e-10 1386.01 -517.619 -7.09488e-10 1307.78 -430.319 -6.78099e-10 1229.13 -343.431 -6.46702e-10 1150.07 -256.955 -6.15312e-10 1070.61 -170.891 -5.83921e-10 990.724 -85.2394 -5.5252e-10 910.431 2.66141e-09 -5.21112e-10 829.725 84.8272 -4.89715e-10 748.607 169.242 -4.58325e-10 667.077 253.245 -4.26934e-10 585.135 336.836 -3.95537e-10 502.781 420.015 -3.64147e-10 420.015 502.781 -3.27973e-10 336.836 585.135 -2.8705e-10 253.245 667.077 -2.4612e-10 169.242 748.607 -2.05198e-10 84.8272 829.725 -1.64274e-10 -3.88809e-10 910.431 -1.23333e-10 -85.2394 990.724 -8.24158e-11 -170.891 1070.61 -4.14813e-11 -256.955 1150.07 -5.60899e-13 -343.431 1229.13 4.03879e-11 -430.319 1307.78 8.13224e-11 -517.619 1386.01 1.22221e-10 -605.331 1463.83 1.63149e-10 -693.456 1541.24 2.04105e-10 -781.992 1618.23 2.45032e-10 1547.65 -863.448 -7.73465e-10 1469.23 -775.585 -7.40942e-10 1390.47 -688.06 -7.08361e-10 1311.37 -600.872 -6.75822e-10 1231.94 -514.022 -6.43274e-10 1152.17 -427.508 -6.10721e-10 1072.07 -341.332 -5.78187e-10 991.623 -255.493 -5.45636e-10 910.843 -169.992 -5.13094e-10 829.725 -84.8272 -4.80548e-10 748.27 2.70643e-09 -4.47984e-10 666.478 84.49 -4.15435e-10 584.348 168.643 -3.82892e-10 501.882 252.458 -3.50339e-10 419.078 335.937 -3.17793e-10 335.937 419.078 -2.81593e-10 252.458 501.882 -2.41702e-10 168.643 584.348 -2.01817e-10 84.49 666.478 -1.61936e-10 -3.66754e-10 748.27 -1.2205e-10 -84.8272 829.725 -8.21677e-11 -169.992 910.843 -4.22851e-11 -255.493 991.623 -2.40611e-12 -341.332 1072.07 3.74658e-11 -427.508 1152.17 7.7352e-11 -514.022 1231.94 1.17238e-10 -600.872 1311.37 1.57131e-10 -688.06 1390.47 1.9701e-10 -775.585 1469.23 2.36911e-10 -863.448 1547.65 2.76761e-10 1475.97 -943.816 -7.43255e-10 1396.2 -856.703 -7.09554e-10 1316.17 -769.852 -6.75838e-10 1235.88 -683.264 -6.42149e-10 1155.32 -596.938 -6.08445e-10 1074.5 -510.874 -5.74745e-10 993.422 -425.073 -5.41054e-10 912.079 -339.534 -5.07349e-10 830.474 -254.257 -4.73653e-10 748.607 -169.242 -4.39958e-10 666.478 -84.49 -4.0625e-10 584.086 2.74758e-09 -3.72548e-10 501.432 84.2277 -3.38847e-10 418.516 168.193 -3.05148e-10 335.337 251.896 -2.7145e-10 251.896 335.337 -2.3518e-10 168.193 418.516 -1.96343e-10 84.2277 501.432 -1.57512e-10 -3.43221e-10 584.086 -1.18673e-10 -84.49 666.478 -7.9837e-11 -169.242 748.607 -4.10064e-11 -254.257 830.474 -2.15803e-12 -339.534 912.079 3.66726e-11 -425.073 993.422 7.55067e-11 -510.874 1074.5 1.14337e-10 -596.938 1155.32 1.53175e-10 -683.264 1235.88 1.92013e-10 -769.852 1316.17 2.30836e-10 -856.703 1396.2 2.69688e-10 -943.816 1475.97 3.08526e-10 1403.21 -1023.1 -7.13031e-10 1322.16 -936.809 -6.78193e-10 1240.93 -850.708 -6.43334e-10 1159.52 -764.794 -6.08494e-10 1077.91 -679.068 -5.73631e-10 996.12 -593.528 -5.38781e-10 914.14 -508.177 -5.03911e-10 831.973 -423.012 -4.69071e-10 749.619 -338.035 -4.34221e-10 667.077 -253.245 -3.99366e-10 584.348 -168.643 -3.64521e-10 501.432 -84.2277 -3.29665e-10 418.328 2.78715e-09 -2.94804e-10 335.037 84.0404 -2.59951e-10 251.559 167.893 -2.25097e-10 167.893 251.559 -1.88784e-10 84.0404 335.037 -1.5099e-10 -3.173e-10 418.328 -1.132e-10 -84.2277 501.432 -7.54148e-11 -168.643 584.348 -3.76237e-11 -253.245 667.077 1.69135e-13 -338.035 749.619 3.7962e-11 -423.012 831.973 7.57584e-11 -508.177 914.14 1.13523e-10 -593.528 996.12 1.51319e-10 -679.068 1077.91 1.89116e-10 -764.794 1159.52 2.26901e-10 -850.708 1240.93 2.64705e-10 -936.809 1322.16 3.02501e-10 -1023.1 1403.21 3.40248e-10 1329.36 -1101.29 -6.82839e-10 1247.12 -1015.9 -6.46825e-10 1164.76 -930.627 -6.10808e-10 1082.3 -845.462 -5.74809e-10 999.717 -760.41 -5.38822e-10 917.025 -675.471 -5.0282e-10 834.221 -590.643 -4.66797e-10 751.305 -505.928 -4.30789e-10 668.276 -421.326 -3.94778e-10 585.135 -336.836 -3.58767e-10 501.882 -252.458 -3.22778e-10 418.516 -168.193 -2.86768e-10 335.037 -84.0404 -2.50762e-10 251.447 2.82398e-09 -2.1476e-10 167.744 83.928 -1.78753e-10 83.928 167.744 -1.42379e-10 -2.90072e-10 251.447 -1.05632e-10 -84.0404 335.037 -6.88877e-11 -168.193 418.516 -3.21504e-11 -252.458 501.882 4.59226e-12 -336.836 585.135 4.13198e-11 -421.326 668.276 7.80784e-11 -505.928 751.305 1.14825e-10 -590.643 834.221 1.51573e-10 -675.471 917.025 1.88326e-10 -760.41 999.717 2.25067e-10 -845.462 1082.3 2.61779e-10 -930.627 1164.76 2.98517e-10 -1015.9 1247.12 3.35272e-10 -1101.29 1329.36 3.72023e-10 1254.42 -1178.4 -6.5262e-10 1171.06 -1093.99 -6.15481e-10 1087.65 -1009.61 -5.78295e-10 1004.21 -925.269 -5.4114e-10 920.735 -840.966 -5.03999e-10 837.219 -756.701 -4.66816e-10 753.666 -672.473 -4.29661e-10 670.075 -588.283 -3.92512e-10 586.447 -504.13 -3.55357e-10 502.781 -420.015 -3.18195e-10 419.078 -335.937 -2.8104e-10 335.337 -251.896 -2.43882e-10 251.559 -167.893 -2.06722e-10 167.744 -83.928 -1.69561e-10 83.8905 2.85758e-09 -1.32404e-10 -2.61323e-10 83.8905 -9.59772e-11 -83.928 167.744 -6.02837e-11 -167.893 251.559 -2.458e-11 -251.896 335.337 1.11113e-11 -335.937 419.078 4.68056e-11 -420.015 502.781 8.25038e-11 -504.13 586.447 1.18202e-10 -588.283 670.075 1.53893e-10 -672.473 753.666 1.89598e-10 -756.701 837.219 2.25318e-10 -840.966 920.735 2.60993e-10 -925.269 1004.21 2.96686e-10 -1009.61 1087.65 3.32377e-10 -1093.99 1171.06 3.68081e-10 -1178.4 1254.42 4.03787e-10 1178.4 -1254.42 -6.08036e-10 1093.99 -1171.06 -5.70286e-10 1009.61 -1087.65 -5.32522e-10 925.269 -1004.21 -4.94755e-10 840.966 -920.735 -4.57022e-10 756.701 -837.219 -4.19298e-10 672.473 -753.666 -3.8152e-10 588.283 -670.075 -3.43785e-10 504.13 -586.447 -3.06035e-10 420.015 -502.781 -2.68285e-10 335.937 -419.078 -2.30543e-10 251.896 -335.337 -1.92788e-10 167.893 -251.559 -1.55038e-10 83.928 -167.744 -1.1729e-10 -2.49329e-10 -83.8905 -7.95435e-11 -83.8905 2.86089e-09 -4.3557e-11 -167.744 83.928 -9.33698e-12 -251.559 167.893 2.48845e-11 -335.337 251.896 5.91085e-11 -419.078 335.937 9.33169e-11 -502.781 420.015 1.27545e-10 -586.447 504.13 1.61781e-10 -670.075 588.283 1.95996e-10 -753.666 672.473 2.30229e-10 -837.219 756.701 2.64438e-10 -920.735 840.966 2.9866e-10 -1004.21 925.269 3.32865e-10 -1087.65 1009.61 3.671e-10 -1171.06 1093.99 4.01308e-10 -1254.42 1178.4 4.35544e-10 1101.29 -1329.36 -5.49036e-10 1015.9 -1247.12 -5.11273e-10 930.627 -1164.76 -4.73492e-10 845.462 -1082.3 -4.35729e-10 760.41 -999.717 -3.97931e-10 675.471 -917.025 -3.60147e-10 590.643 -834.221 -3.22379e-10 505.928 -751.305 -2.84609e-10 421.326 -668.276 -2.46835e-10 336.836 -585.135 -2.09046e-10 252.458 -501.882 -1.71269e-10 168.193 -418.516 -1.33499e-10 84.0404 -335.037 -9.57243e-11 -2.57046e-10 -251.447 -5.79465e-11 -83.928 -167.744 -2.0167e-11 -167.744 -83.928 1.48783e-11 -251.447 2.83308e-09 4.71982e-11 -335.037 84.0404 7.9508e-11 -418.516 168.193 1.11831e-10 -501.882 252.458 1.44145e-10 -585.135 336.836 1.76486e-10 -668.276 421.326 2.08791e-10 -751.305 505.928 2.411e-10 -834.221 590.643 2.73422e-10 -917.025 675.471 3.05739e-10 -999.717 760.41 3.38048e-10 -1082.3 845.462 3.70378e-10 -1164.76 930.627 4.02729e-10 -1247.12 1015.9 4.35044e-10 -1329.36 1101.29 4.67338e-10 1023.1 -1403.21 -4.90054e-10 936.809 -1322.16 -4.52244e-10 850.708 -1240.93 -4.14441e-10 764.794 -1159.52 -3.76639e-10 679.068 -1077.91 -3.38841e-10 593.528 -996.12 -3.01037e-10 508.177 -914.14 -2.63249e-10 423.012 -831.973 -2.2542e-10 338.035 -749.619 -1.87617e-10 253.245 -667.077 -1.49821e-10 168.643 -584.348 -1.12015e-10 84.2277 -501.432 -7.42126e-11 -2.62446e-10 -418.328 -3.64047e-11 -84.0404 -335.037 1.39622e-12 -167.893 -251.559 3.92042e-11 -251.559 -167.893 7.33129e-11 -335.037 -84.0404 1.03731e-10 -418.328 2.80204e-09 1.34143e-10 -501.432 84.2277 1.64562e-10 -584.348 168.643 1.9498e-10 -667.077 253.245 2.25388e-10 -749.619 338.035 2.55813e-10 -831.973 423.012 2.86217e-10 -914.14 508.177 3.1665e-10 -996.12 593.528 3.47043e-10 -1077.91 679.068 3.7744e-10 -1159.52 764.794 4.07901e-10 -1240.93 850.708 4.38298e-10 -1322.16 936.809 4.68717e-10 -1403.21 1023.1 4.99128e-10 943.816 -1475.97 -4.31079e-10 856.703 -1396.2 -3.93231e-10 769.852 -1316.17 -3.55405e-10 683.264 -1235.88 -3.17566e-10 596.938 -1155.32 -2.79734e-10 510.874 -1074.5 -2.41918e-10 425.073 -993.422 -2.04068e-10 339.534 -912.079 -1.66244e-10 254.257 -830.474 -1.28409e-10 169.242 -748.607 -9.058e-11 84.49 -666.478 -5.27507e-11 -2.67391e-10 -584.086 -1.49178e-11 -84.2277 -501.432 2.29115e-11 -168.193 -418.516 6.07443e-11 -251.896 -335.337 9.85807e-11 -335.337 -251.896 1.31751e-10 -418.516 -168.193 1.60258e-10 -501.432 -84.2277 1.88773e-10 -584.086 2.76805e-09 2.17286e-10 -666.478 84.49 2.45798e-10 -748.607 169.242 2.74319e-10 -830.474 254.257 3.02819e-10 -912.079 339.534 3.31333e-10 -993.422 425.073 3.59851e-10 -1074.5 510.874 3.88368e-10 -1155.32 596.938 4.16883e-10 -1235.88 683.264 4.45404e-10 -1316.17 769.852 4.73875e-10 -1396.2 856.703 5.02411e-10 -1475.97 943.816 5.30932e-10 863.448 -1547.65 -3.72083e-10 775.585 -1469.23 -3.34199e-10 688.06 -1390.47 -2.96358e-10 600.872 -1311.37 -2.58498e-10 514.022 -1231.94 -2.20645e-10 427.508 -1152.17 -1.82785e-10 341.332 -1072.07 -1.44915e-10 255.493 -991.623 -1.07065e-10 169.992 -910.843 -6.91998e-11 84.8272 -829.725 -3.13314e-11 -2.71712e-10 -748.27 6.51212e-12 -84.49 -666.478 4.43698e-11 -168.643 -584.348 8.22311e-11 -252.458 -501.882 1.20089e-10 -335.937 -419.078 1.57947e-10 -419.078 -335.937 1.90195e-10 -501.882 -252.458 2.16792e-10 -584.348 -168.643 2.434e-10 -666.478 -84.49 2.7002e-10 -748.27 2.73076e-09 2.96623e-10 -829.725 84.8272 3.23233e-10 -910.843 169.992 3.49846e-10 -991.623 255.493 3.76467e-10 -1072.07 341.332 4.0307e-10 -1152.17 427.508 4.29687e-10 -1231.94 514.022 4.56275e-10 -1311.37 600.872 4.82885e-10 -1390.47 688.06 5.09495e-10 -1469.23 775.585 5.3609e-10 -1547.65 863.448 5.62707e-10 781.992 -1618.23 -3.13079e-10 693.456 -1541.24 -2.75192e-10 605.331 -1463.83 -2.37319e-10 517.619 -1386.01 -1.99433e-10 430.319 -1307.78 -1.61535e-10 343.431 -1229.13 -1.23645e-10 256.955 -1150.07 -8.57838e-11 170.891 -1070.61 -4.7887e-11 85.2394 -990.724 -1.00044e-11 -2.76486e-10 -910.431 2.78888e-11 -84.8272 -829.725 6.57749e-11 -169.242 -748.607 1.03661e-10 -253.245 -667.077 1.41547e-10 -336.836 -585.135 1.7944e-10 -420.015 -502.781 2.17319e-10 -502.781 -420.015 2.48624e-10 -585.135 -336.836 2.73314e-10 -667.077 -253.245 2.98035e-10 -748.607 -169.242 3.22739e-10 -829.725 -84.8272 3.47455e-10 -910.431 2.69051e-09 3.7215e-10 -990.724 85.2394 3.96852e-10 -1070.61 170.891 4.21565e-10 -1150.07 256.955 4.46285e-10 -1229.13 343.431 4.70976e-10 -1307.78 430.319 4.95675e-10 -1386.01 517.619 5.20401e-10 -1463.83 605.331 5.45086e-10 -1541.24 693.456 5.69813e-10 -1618.23 781.992 5.94511e-10 699.451 -1687.74 -2.54104e-10 610.315 -1612.24 -2.16204e-10 521.666 -1536.25 -1.78305e-10 433.504 -1459.78 -1.40366e-10 345.829 -1382.82 -1.02425e-10 258.641 -1305.38 -6.45208e-11 171.94 -1227.45 -2.66098e-11 85.7265 -1149.03 1.12976e-11 -2.81716e-10 -1070.12 4.92122e-11 -85.2394 -990.724 8.71268e-11 -169.992 -910.843 1.25034e-10 -254.257 -830.474 1.62949e-10 -338.035 -749.619 2.00863e-10 -421.326 -668.276 2.38785e-10 -504.13 -586.447 2.76692e-10 -586.447 -504.13 3.07048e-10 -668.276 -421.326 3.29864e-10 -749.619 -338.035 3.5266e-10 -830.474 -254.257 3.75472e-10 -910.843 -169.992 3.9827e-10 -990.724 -85.2394 4.21068e-10 -1070.12 2.64572e-09 4.43883e-10 -1149.03 85.7265 4.66663e-10 -1227.45 171.94 4.89486e-10 -1305.38 258.641 5.12273e-10 -1382.82 345.829 5.35096e-10 -1459.78 433.504 5.5789e-10 -1536.25 521.666 5.80684e-10 -1612.24 610.315 6.03478e-10 -1687.74 699.451 6.26287e-10 615.823 -1756.15 -1.95143e-10 526.162 -1682.23 -1.5716e-10 437.063 -1607.74 -1.19231e-10 348.526 -1532.69 -8.12719e-11 260.552 -1457.08 -4.33502e-11 173.139 -1380.91 -5.40012e-12 86.2885 -1304.18 3.25393e-11 -2.87855e-10 -1226.88 7.04645e-11 -85.7265 -1149.03 1.08408e-10 -170.891 -1070.61 1.46365e-10 -255.493 -991.623 1.84315e-10 -339.534 -912.079 2.22244e-10 -423.012 -831.973 2.60194e-10 -505.928 -751.305 2.98122e-10 -588.283 -670.075 3.3608e-10 -670.075 -588.283 3.65495e-10 -751.305 -505.928 3.864e-10 -831.973 -423.012 4.07294e-10 -912.079 -339.534 4.28187e-10 -991.623 -255.493 4.49084e-10 -1070.61 -170.891 4.69988e-10 -1149.03 -85.7265 4.909e-10 -1226.88 2.59706e-09 5.11797e-10 -1304.18 86.2885 5.32694e-10 -1380.91 173.139 5.53598e-10 -1457.08 260.552 5.74502e-10 -1532.69 348.526 5.95392e-10 -1607.74 437.063 6.16282e-10 -1682.23 526.162 6.37172e-10 -1756.15 615.823 6.58119e-10 531.108 -1823.48 -1.36168e-10 440.997 -1751.21 -9.81819e-11 351.524 -1678.29 -6.02078e-11 262.688 -1604.74 -2.22045e-11 174.488 -1530.56 1.57634e-11 86.9255 -1455.74 5.37348e-11 -2.92744e-10 -1380.28 9.1692e-11 -86.2885 -1304.18 1.2966e-10 -171.94 -1227.45 1.67624e-10 -256.955 -1150.07 2.05596e-10 -341.332 -1072.07 2.43553e-10 -425.073 -993.422 2.81531e-10 -508.177 -914.14 3.1951e-10 -590.643 -834.221 3.57474e-10 -672.473 -753.666 3.95445e-10 -753.666 -672.473 4.23923e-10 -834.221 -590.643 4.42922e-10 -914.14 -508.177 4.6191e-10 -993.422 -425.073 4.80924e-10 -1072.07 -341.332 4.99924e-10 -1150.07 -256.955 5.18909e-10 -1227.45 -171.94 5.37909e-10 -1304.18 -86.2885 5.56895e-10 -1380.28 2.54386e-09 5.75895e-10 -1455.74 86.9255 5.94895e-10 -1530.56 174.488 6.13909e-10 -1604.74 262.688 6.32923e-10 -1678.29 351.524 6.51895e-10 -1751.21 440.997 6.70951e-10 -1823.48 531.108 6.89909e-10 445.306 -1889.72 -7.71934e-11 354.821 -1819.17 -3.91926e-11 265.048 -1747.91 -1.17595e-12 175.987 -1675.93 3.68594e-11 87.6374 -1603.25 7.48805e-11 -3.00702e-10 -1529.85 1.12824e-10 -86.9255 -1455.74 1.50841e-10 -173.139 -1380.91 1.88834e-10 -258.641 -1305.38 2.26834e-10 -343.431 -1229.13 2.64826e-10 -427.508 -1152.17 3.02826e-10 -510.874 -1074.5 3.40819e-10 -593.528 -996.12 3.78833e-10 -675.471 -917.025 4.16804e-10 -756.701 -837.219 4.54804e-10 -837.219 -756.701 4.82348e-10 -917.025 -675.471 4.99476e-10 -996.12 -593.528 5.1655e-10 -1074.5 -510.874 5.33639e-10 -1152.17 -427.508 5.50735e-10 -1229.13 -343.431 5.6783e-10 -1305.38 -258.641 5.84919e-10 -1380.91 -173.139 6.02029e-10 -1455.74 -86.9255 6.19124e-10 -1529.85 2.4861e-09 6.3622e-10 -1603.25 87.6374 6.53316e-10 -1675.93 175.987 6.70397e-10 -1747.91 265.048 6.87507e-10 -1819.17 354.821 7.04574e-10 -1889.72 445.306 7.21712e-10 358.418 -1954.88 -1.81331e-11 267.633 -1886.13 1.98535e-11 177.635 -1816.59 5.79021e-11 88.4243 -1746.26 9.58735e-11 -3.06954e-10 -1675.15 1.33941e-10 -87.6374 -1603.25 1.71944e-10 -174.488 -1530.56 2.10001e-10 -260.552 -1457.08 2.48001e-10 -345.829 -1382.82 2.8605e-10 -430.319 -1307.78 3.24079e-10 -514.022 -1231.94 3.62093e-10 -596.938 -1155.32 4.00121e-10 -679.068 -1077.91 4.38135e-10 -760.41 -999.717 4.76163e-10 -840.966 -920.735 5.14177e-10 -920.735 -840.966 5.40803e-10 -999.717 -760.41 5.55996e-10 -1077.91 -679.068 5.71202e-10 -1155.32 -596.938 5.86361e-10 -1231.94 -514.022 6.01567e-10 -1307.78 -430.319 6.16772e-10 -1382.82 -345.829 6.31942e-10 -1457.08 -260.552 6.47148e-10 -1530.56 -174.488 6.62354e-10 -1603.25 -87.6374 6.77517e-10 -1675.15 2.42107e-09 6.92722e-10 -1746.26 88.4243 7.079e-10 -1816.59 177.635 7.23077e-10 -1886.13 267.633 7.38254e-10 -1954.88 358.418 7.53488e-10 270.444 -2018.95 4.07852e-11 179.434 -1952.07 7.88747e-11 89.2861 -1884.33 1.16962e-10 -3.18551e-10 -1815.72 1.54966e-10 -88.4243 -1746.26 1.93051e-10 -175.987 -1675.93 2.31076e-10 -262.688 -1604.74 2.69125e-10 -348.526 -1532.69 3.07189e-10 -433.504 -1459.78 3.4526e-10 -517.619 -1386.01 3.83309e-10 -600.872 -1311.37 4.21352e-10 -683.264 -1235.88 4.59423e-10 -764.794 -1159.52 4.97465e-10 -845.462 -1082.3 5.35493e-10 -925.269 -1004.21 5.73579e-10 -1004.21 -925.269 5.99245e-10 -1082.3 -845.462 6.12509e-10 -1159.52 -764.794 6.258e-10 -1235.88 -683.264 6.39105e-10 -1311.37 -600.872 6.52378e-10 -1386.01 -517.619 6.65665e-10 -1459.78 -433.504 6.78966e-10 -1532.69 -348.526 6.92253e-10 -1604.74 -262.688 7.05541e-10 -1675.93 -175.987 7.18828e-10 -1746.26 -88.4243 7.32129e-10 -1815.72 2.35195e-09 7.45445e-10 -1884.33 89.2861 7.58689e-10 -1952.07 179.434 7.72019e-10 -2018.95 270.444 7.85292e-10 181.382 -2081.93 9.9817e-11 90.2228 -2017 1.37923e-10 -3.29919e-10 -1951.13 1.75941e-10 -89.2861 -1884.33 2.14019e-10 -177.635 -1816.59 2.52168e-10 -265.048 -1747.91 2.90221e-10 -351.524 -1678.29 3.28285e-10 -437.063 -1607.74 3.66356e-10 -521.666 -1536.25 4.04448e-10 -605.331 -1463.83 4.42526e-10 -688.06 -1390.47 4.80611e-10 -769.852 -1316.17 5.18682e-10 -850.708 -1240.93 5.56781e-10 -930.627 -1164.76 5.94866e-10 -1009.61 -1087.65 6.32937e-10 -1087.65 -1009.61 6.57656e-10 -1164.76 -930.627 6.69036e-10 -1240.93 -850.708 6.80423e-10 -1316.17 -769.852 6.91827e-10 -1390.47 -688.06 7.03217e-10 -1463.83 -605.331 7.14593e-10 -1536.25 -521.666 7.25962e-10 -1607.74 -437.063 7.37373e-10 -1678.29 -351.524 7.48756e-10 -1747.91 -265.048 7.60139e-10 -1816.59 -177.635 7.71507e-10 -1884.33 -89.2861 7.82904e-10 -1951.13 2.27556e-09 7.94302e-10 -2017 90.2228 8.05699e-10 -2081.93 181.382 8.17067e-10 91.2345 -2143.83 1.58735e-10 -3.44045e-10 -2080.92 1.96943e-10 -90.2228 -2017 2.35007e-10 -179.434 -1952.07 2.73097e-10 -267.633 -1886.13 3.11264e-10 -354.821 -1819.17 3.49317e-10 -440.997 -1751.21 3.87466e-10 -526.162 -1682.23 4.25544e-10 -610.315 -1612.24 4.63636e-10 -693.456 -1541.24 5.01757e-10 -775.585 -1469.23 5.3987e-10 -856.703 -1396.2 5.77984e-10 -936.809 -1322.16 6.16083e-10 -1015.9 -1247.12 6.54225e-10 -1093.99 -1171.06 6.9231e-10 -1171.06 -1093.99 7.16111e-10 -1247.12 -1015.9 7.25557e-10 -1322.16 -936.809 7.35085e-10 -1396.2 -856.703 7.44542e-10 -1469.23 -775.585 7.54056e-10 -1541.24 -693.456 7.63521e-10 -1612.24 -610.315 7.72985e-10 -1682.23 -526.162 7.82478e-10 -1751.21 -440.997 7.91957e-10 -1819.17 -354.821 8.01435e-10 -1886.13 -267.633 8.10928e-10 -1952.07 -179.434 8.20421e-10 -2017 -90.2228 8.29885e-10 -2080.92 2.1937e-09 8.39378e-10 -2143.83 91.2345 8.489e-10 -3.61069e-10 -2204.64 2.17796e-10 -91.2345 -2143.83 2.55904e-10 -181.382 -2081.93 2.94037e-10 -270.444 -2018.95 3.32147e-10 -358.418 -1954.88 3.70356e-10 -445.306 -1889.72 4.0842e-10 -531.108 -1823.48 4.46626e-10 -615.823 -1756.15 4.84739e-10 -699.451 -1687.74 5.2286e-10 -781.992 -1618.23 5.60988e-10 -863.448 -1547.65 5.99144e-10 -943.816 -1475.97 6.37272e-10 -1023.1 -1403.21 6.75414e-10 -1101.29 -1329.36 7.13555e-10 -1178.4 -1254.42 7.51683e-10 -1254.42 -1178.4 7.74524e-10 -1329.36 -1101.29 7.8213e-10 -1403.21 -1023.1 7.89697e-10 -1475.97 -943.816 7.97272e-10 -1547.65 -863.448 8.04874e-10 -1618.23 -781.992 8.12435e-10 -1687.74 -699.451 8.20023e-10 -1756.15 -615.823 8.27583e-10 -1823.48 -531.108 8.35172e-10 -1889.72 -445.306 8.42732e-10 -1954.88 -358.418 8.50349e-10 -2018.95 -270.444 8.57909e-10 -2081.93 -181.382 8.65526e-10 -2143.83 -91.2345 8.7303e-10 -2204.64 2.10366e-09 8.80647e-10 2163.61 1.84536e-09 -1.42046e-09 2103.97 89.5685 -1.3851e-09 2043.25 178.068 -1.34963e-09 1981.47 265.5 -1.31433e-09 1918.62 351.862 -1.27899e-09 1854.7 437.156 -1.24358e-09 1789.71 521.381 -1.20821e-09 1723.65 604.538 -1.17278e-09 1656.52 686.626 -1.13742e-09 1588.33 767.645 -1.10202e-09 1519.06 847.596 -1.06662e-09 1448.73 926.478 -1.03125e-09 1377.33 1004.29 -9.95868e-10 1304.86 1081.04 -9.60526e-10 1231.32 1156.71 -9.25084e-10 1156.71 1231.32 -8.82938e-10 1081.04 1304.86 -8.34007e-10 1004.29 1377.33 -7.85125e-10 926.478 1448.73 -7.36208e-10 847.596 1519.06 -6.87301e-10 767.645 1588.33 -6.38394e-10 686.626 1656.52 -5.89509e-10 604.538 1723.65 -5.40595e-10 521.381 1789.71 -4.91681e-10 437.156 1854.7 -4.4281e-10 351.862 1918.62 -3.93882e-10 265.5 1981.47 -3.44983e-10 178.068 2043.25 -2.96126e-10 89.5685 2103.97 -2.47212e-10 -2.48292e-10 2163.61 -1.98213e-10 2103.97 -89.5685 -1.37651e-09 2042.26 1.90296e-09 -1.34023e-09 1979.55 88.5736 -1.30412e-09 1915.85 176.152 -1.26794e-09 1851.16 262.736 -1.23185e-09 1785.47 348.325 -1.19572e-09 1718.78 432.918 -1.15956e-09 1651.11 516.517 -1.12341e-09 1582.43 599.121 -1.08726e-09 1512.76 680.73 -1.05114e-09 1442.1 761.344 -1.01499e-09 1370.44 840.963 -9.78865e-10 1297.78 919.587 -9.42714e-10 1224.13 997.216 -9.06593e-10 1149.49 1073.85 -8.70456e-10 1073.85 1149.49 -8.28034e-10 997.216 1224.13 -7.79395e-10 919.587 1297.78 -7.30805e-10 840.963 1370.44 -6.82155e-10 761.344 1442.1 -6.33512e-10 680.73 1512.76 -5.84855e-10 599.121 1582.43 -5.36254e-10 516.517 1651.11 -4.8759e-10 432.918 1718.78 -4.38982e-10 348.325 1785.47 -3.90346e-10 262.736 1851.16 -3.41753e-10 176.152 1915.85 -2.93103e-10 88.5736 1979.55 -2.44481e-10 -2.71768e-10 2042.26 -1.95845e-10 -89.5685 2103.97 -1.47152e-10 2043.25 -178.068 -1.33241e-09 1979.55 -88.5736 -1.29546e-09 1914.93 1.95838e-09 -1.25857e-09 1849.39 87.6523 -1.2216e-09 1782.93 174.383 -1.18477e-09 1715.54 260.193 -1.14784e-09 1647.24 345.082 -1.11093e-09 1578.01 429.049 -1.07405e-09 1507.86 512.095 -1.03715e-09 1436.79 594.22 -1.00024e-09 1364.8 675.423 -9.63357e-10 1291.89 755.706 -9.26469e-10 1218.05 835.067 -8.89575e-10 1143.3 913.507 -8.52688e-10 1067.62 991.025 -8.15758e-10 991.025 1067.62 -7.73156e-10 913.507 1143.3 -7.24773e-10 835.067 1218.05 -6.76411e-10 755.706 1291.89 -6.28053e-10 675.423 1364.8 -5.79709e-10 594.22 1436.79 -5.31308e-10 512.095 1507.86 -4.82985e-10 429.049 1578.01 -4.3457e-10 345.082 1647.24 -3.86269e-10 260.193 1715.54 -3.37839e-10 174.383 1782.93 -2.89495e-10 87.6523 1849.39 -2.41166e-10 -2.90527e-10 1914.93 -1.92807e-10 -88.5736 1979.55 -1.44421e-10 -178.068 2043.25 -9.59771e-11 1981.47 -265.5 -1.28825e-09 1915.85 -176.152 -1.25062e-09 1849.39 -87.6523 -1.2129e-09 1782.08 2.01186e-09 -1.17525e-09 1713.92 86.8048 -1.13764e-09 1644.91 172.762 -1.09996e-09 1575.06 257.872 -1.06232e-09 1504.36 342.134 -1.02466e-09 1432.81 425.548 -9.87011e-10 1360.41 508.115 -9.49337e-10 1287.17 589.835 -9.11705e-10 1213.08 670.707 -8.74081e-10 1138.14 750.731 -8.36407e-10 1062.35 829.908 -7.98783e-10 985.719 908.237 -7.61116e-10 908.237 985.719 -7.18251e-10 829.908 1062.35 -6.70144e-10 750.731 1138.14 -6.22067e-10 670.707 1213.08 -5.73979e-10 589.835 1287.17 -5.25891e-10 508.115 136