<?xml version="1.0"?> 
<VTKFile type="StructuredGrid" version="0.1"> 
<StructuredGrid WholeExtent="0 29 0 29 0 29"> 
<Piece Extent="0 29 0 29 0 29"> 
<PointData>
<DataArray type="Float32" Name="hfield" format="ascii" NumberOfComponents="3"> 
3798.96 -7.63976e-11 4.38035e-10 3694.6 157.638 4.25928e-10 3588.34 313.373 4.14033e-10 3480.17 467.205 4.02281e-10 3370.1 619.135 3.9023e-10 3258.13 769.162 3.78208e-10 3144.26 917.286 3.66441e-10 3028.48 1063.51 3.54476e-10 2910.81 1207.82 3.42482e-10 2791.22 1350.24 3.30488e-10 2669.74 1490.75 3.18607e-10 2546.35 1629.36 3.06727e-10 2421.06 1766.07 2.94904e-10 2293.87 1900.87 2.8291e-10 2164.77 2033.78 2.70973e-10 2033.78 2164.77 2.58755e-10 1900.87 2293.87 2.45961e-10 1766.07 2421.06 2.33314e-10 1629.36 2546.35 2.20552e-10 1490.75 2669.74 2.07933e-10 1350.24 2791.22 1.95143e-10 1207.82 2910.81 1.82467e-10 1063.51 3028.48 1.69734e-10 917.286 3144.26 1.57115e-10 769.162 3258.13 1.44496e-10 619.135 3370.1 1.31763e-10 467.205 3480.17 1.1903e-10 313.373 3588.34 1.06297e-10 157.638 3694.6 9.3678e-11 -2.29193e-10 3798.96 8.08313e-11 3694.6 -157.638 4.21277e-10 3586.56 -8.36131e-11 4.09043e-10 3476.76 155.866 3.96689e-10 3365.18 309.961 3.84428e-10 3251.83 462.284 3.72159e-10 3136.71 612.836 3.59776e-10 3019.82 761.616 3.4755e-10 2901.16 908.625 3.35267e-10 2780.73 1053.86 3.23041e-10 2658.52 1197.33 3.10729e-10 2534.54 1339.02 2.98446e-10 2408.79 1478.94 2.86163e-10 2281.27 1617.09 2.73937e-10 2151.98 1753.47 2.61654e-10 2020.91 1888.08 2.49314e-10 1888.08 2020.91 2.36904e-10 1753.47 2151.98 2.24301e-10 1617.09 2281.27 2.11744e-10 1478.94 2408.79 1.99201e-10 1339.02 2534.54 1.86573e-10 1197.33 2658.52 1.7403e-10 1053.86 2780.73 1.61345e-10 908.625 2901.16 1.48774e-10 761.616 3019.82 1.36259e-10 612.836 3136.71 1.23574e-10 462.284 3251.83 1.1106e-10 309.961 3365.18 9.85454e-11 155.866 3476.76 8.6031e-11 -2.24816e-10 3586.56 7.32892e-11 -157.638 3694.6 6.07747e-11 3588.34 -313.373 4.04859e-10 3476.76 -155.866 3.92255e-10 3363.54 -8.8221e-11 3.79424e-10 3248.68 154.226 3.66944e-10 3132.19 306.812 3.54158e-10 3014.05 457.757 3.41543e-10 2894.27 607.062 3.28858e-10 2772.85 754.727 3.16314e-10 2649.79 900.751 3.03628e-10 2525.09 1045.13 2.90914e-10 2398.75 1187.88 2.78228e-10 2270.77 1328.98 2.65542e-10 2141.15 1468.44 2.5297e-10 2009.89 1606.27 2.40284e-10 1876.99 1742.45 2.27655e-10 1742.45 1876.99 2.15046e-10 1606.27 2009.89 2.02569e-10 1468.44 2141.15 1.90145e-10 1328.98 2270.77 1.77764e-10 1187.88 2398.75 1.65241e-10 1045.13 2525.09 1.52746e-10 900.751 2649.79 1.40336e-10 754.727 2772.85 1.27699e-10 607.062 2894.27 1.15347e-10 457.757 3014.05 1.02823e-10 306.812 3132.19 9.04704e-11 154.226 3248.68 7.79471e-11 -2.21007e-10 3363.54 6.54237e-11 -155.866 3476.76 5.31278e-11 -313.373 3588.34 4.04908e-11 3480.17 -467.205 3.88328e-10 3365.18 -309.961 3.75257e-10 3248.68 -154.226 3.61952e-10 3130.68 -9.10063e-11 3.49218e-10 3011.16 152.717 3.35987e-10 2890.14 303.925 3.23027e-10 2767.6 453.623 3.10108e-10 2643.56 601.813 2.97077e-10 2518.01 748.493 2.84073e-10 2390.95 893.664 2.71041e-10 2262.37 1037.33 2.57953e-10 2132.29 1179.48 2.45091e-10 2000.71 1320.12 2.32003e-10 1867.61 1459.26 2.19028e-10 1733 1596.88 2.05939e-10 1596.88 1733 1.93359e-10 1459.26 1867.61 1.80909e-10 1320.12 2000.71 1.68618e-10 1179.48 2132.29 1.56214e-10 1037.33 2262.37 1.43937e-10 893.664 2390.95 1.31462e-10 748.493 2518.01 1.19271e-10 601.813 2643.56 1.06909e-10 453.623 2767.6 9.46043e-11 303.925 2890.14 8.24132e-11 152.717 3011.16 6.97673e-11 -2.17597e-10 3130.68 5.74624e-11 -154.226 3248.68 4.53849e-11 -309.961 3365.18 3.28527e-11 -467.205 3480.17 2.04342e-11 3370.1 -619.135 3.71456e-10 3251.83 -462.284 3.58241e-10 3132.19 -306.812 3.44686e-10 3011.16 -152.717 3.31436e-10 2888.76 -9.45306e-11 3.18143e-10 2764.98 151.339 3.04638e-10 2639.82 301.3 2.91302e-10 2513.28 449.883 2.77868e-10 2385.37 597.089 2.64518e-10 2256.08 742.916 2.51141e-10 2125.41 887.365 2.37763e-10 1993.36 1030.44 2.24413e-10 1859.93 1172.13 2.11036e-10 1725.13 1312.45 1.97658e-10 1588.94 1451.38 1.84223e-10 1451.38 1588.94 1.71487e-10 1312.45 1725.13 1.59291e-10 1172.13 1859.93 1.47077e-10 1030.44 1993.36 1.34777e-10 887.365 2125.41 1.22605e-10 742.916 2256.08 1.10349e-10 597.089 2385.37 9.81485e-11 449.883 2513.28 8.59485e-11 301.3 2639.82 7.37484e-11 151.339 2764.98 6.14915e-11 -2.16687e-10 2888.76 4.92915e-11 -152.717 3011.16 3.69777e-11 -306.812 3132.19 2.4664e-11 -462.284 3251.83 1.23503e-11 -619.135 3370.1 3.7757e-13 3258.13 -769.162 3.55038e-10 3136.71 -612.836 3.41361e-10 3014.05 -457.757 3.27449e-10 2890.14 -303.925 3.13867e-10 2764.98 -151.339 3.00171e-10 2638.57 -9.66338e-11 2.86306e-10 2510.92 150.092 2.72582e-10 2382.02 298.938 2.5883e-10 2251.88 446.537 2.45077e-10 2120.48 592.889 2.31297e-10 1987.85 737.995 2.17601e-10 1853.96 881.854 2.03821e-10 1718.83 1024.47 1.90069e-10 1582.45 1165.83 1.76288e-10 1444.82 1305.95 1.62507e-10 1305.95 1444.82 1.4964e-10 1165.83 1582.45 1.37616e-10 1024.47 1718.83 1.2545e-10 881.854 1853.96 1.1334e-10 737.995 1987.85 1.01217e-10 592.889 2120.48 8.91783e-11 446.537 2251.88 7.69978e-11 298.938 2382.02 6.49878e-11 150.092 2510.92 5.27788e-11 -2.16232e-10 2638.57 4.06836e-11 -151.339 2764.98 2.85883e-11 -303.925 2890.14 1.64362e-11 -457.757 3014.05 4.51148e-12 -612.836 3136.71 -7.69746e-12 -769.162 3258.13 -1.97927e-11 3144.26 -917.286 3.38393e-10 3019.82 -761.616 3.24299e-10 2894.27 -607.062 3.10254e-10 2767.6 -453.623 2.96148e-10 2639.82 -301.3 2.82072e-10 2510.92 -150.092 2.6786e-10 2380.91 -9.95897e-11 2.53776e-10 2249.78 148.977 2.39678e-10 2117.53 296.838 2.25579e-10 1984.17 443.584 2.11481e-10 1849.69 589.215 1.97383e-10 1714.1 733.73 1.83228e-10 1577.4 877.13 1.6913e-10 1439.57 1019.41 1.55003e-10 1300.64 1160.58 1.40905e-10 1160.58 1300.64 1.27864e-10 1019.41 1439.57 1.15885e-10 877.13 1577.4 1.0388e-10 733.73 1714.1 9.19321e-11 589.215 1849.69 7.99132e-11 443.584 1984.17 6.79511e-11 296.838 2117.53 5.59891e-11 148.977 2249.78 4.40271e-11 -2.1555e-10 2380.91 3.19798e-11 -150.092 2510.92 2.00461e-11 -301.3 2639.82 7.99884e-12 -453.623 2767.6 -3.93478e-12 -607.062 2894.27 -1.59252e-11 -761.616 3019.82 -2.78589e-11 -917.286 3144.26 -3.98493e-11 3028.48 -1063.51 3.21919e-10 2901.16 -908.625 3.07457e-10 2772.85 -754.727 2.92945e-10 2643.56 -601.813 2.78487e-10 2513.28 -449.883 2.63943e-10 2382.02 -298.938 2.49585e-10 2249.78 -148.977 2.35069e-10 2116.55 -1.00727e-10 2.2054e-10 1982.33 147.993 2.06082e-10 1847.14 295.001 1.91609e-10 1710.95 441.025 1.77136e-10 1573.79 586.065 1.62664e-10 1435.64 730.121 1.48163e-10 1296.5 873.193 1.33662e-10 1156.38 1015.28 1.19246e-10 1015.28 1156.38 1.0604e-10 873.193 1296.5 9.42311e-11 730.121 1435.64 8.23384e-11 586.065 1573.79 7.04527e-11 441.025 1710.95 5.85528e-11 295.001 1847.14 4.67808e-11 147.993 1982.33 3.48668e-11 -2.21462e-10 2116.55 2.29811e-11 -148.977 2249.78 1.11239e-11 -298.938 2382.02 -7.04967e-13 -449.883 2513.28 -1.25906e-11 -601.813 2643.56 -2.44763e-11 -754.727 2772.85 -3.6362e-11 -908.625 2901.16 -4.81908e-11 -1063.51 3028.48 -6.00196e-11 2910.81 -1207.82 3.05331e-10 2780.73 -1053.86 2.90455e-10 2649.79 -900.751 2.75644e-10 2518.01 -748.493 2.60769e-10 2385.37 -597.089 2.45929e-10 2251.88 -446.537 2.31096e-10 2117.53 -296.838 2.16292e-10 1982.33 -147.993 2.01473e-10 1846.28 -1.02546e-10 1.86598e-10 1709.38 147.14 1.71765e-10 1571.62 293.426 1.56918e-10 1433.01 438.86 1.42043e-10 1293.55 583.441 1.27224e-10 1153.23 727.168 1.12406e-10 1012.06 870.043 9.75304e-11 870.043 1012.06 8.42946e-11 727.168 1153.23 7.25066e-11 583.441 1293.55 6.07968e-11 438.86 1433.01 4.90444e-11 293.426 1571.62 3.72919e-11 147.14 1709.38 2.55253e-11 -2.1987e-10 1846.28 1.38013e-11 -147.993 1982.33 2.02039e-12 -296.838 2117.53 -9.67521e-12 -446.537 2251.88 -2.13992e-11 -597.089 2385.37 -3.31233e-11 -748.493 2518.01 -4.4961e-11 -900.751 2649.79 -5.6685e-11 -1053.86 2780.73 -6.84659e-11 -1207.82 2910.81 -8.0133e-11 2791.22 -1350.24 2.88686e-10 2658.52 -1197.33 2.7363e-10 2525.09 -1045.13 2.58229e-10 2390.95 -893.664 2.43114e-10 2256.08 -742.916 2.27985e-10 2120.48 -592.889 2.12743e-10 1984.17 -443.584 1.975e-10 1847.14 -295.001 1.82321e-10 1709.38 -147.14 1.67086e-10 1570.9 -1.05501e-10 1.51864e-10 1431.7 146.418 1.36671e-10 1291.78 292.114 1.21507e-10 1151.13 437.088 1.06257e-10 1009.77 581.341 9.10927e-11 867.681 724.872 7.58714e-11 724.872 867.681 6.24724e-11 581.341 1009.77 5.08532e-11 437.088 1151.13 3.91771e-11 292.114 1291.78 2.75792e-11 146.418 1431.7 1.596e-11 -2.22826e-10 1570.9 4.34078e-12 -147.14 1709.38 -7.32108e-12 -295.001 1847.14 -1.88835e-11 -443.584 1984.17 -3.04743e-11 -592.889 2120.48 -4.21503e-11 -742.916 2256.08 -5.37696e-11 -893.664 2390.95 -6.52751e-11 -1045.13 2525.09 -7.70649e-11 -1197.33 2658.52 -8.86273e-11 -1350.24 2791.22 -1.00303e-10 2669.74 -1490.75 2.72155e-10 2534.54 -1339.02 2.56619e-10 2398.75 -1187.88 2.41024e-10 2262.37 -1037.33 2.25485e-10 2125.41 -887.365 2.09878e-10 1987.85 -737.995 1.94304e-10 1849.69 -589.215 1.78758e-10 1710.95 -441.025 1.63155e-10 1571.62 -293.426 1.47616e-10 1431.7 -146.418 1.32049e-10 1291.19 -1.0823e-10 1.16453e-10 1150.08 145.827 1.009e-10 1008.39 291.064 8.53044e-11 866.106 435.711 6.97229e-11 723.232 579.766 5.41556e-11 579.766 723.232 4.06361e-11 435.711 866.106 2.91891e-11 291.064 1008.39 1.76498e-11 145.827 1150.08 6.12829e-12 -2.23736e-10 1291.19 -5.37193e-12 -146.418 1431.7 -1.68864e-11 -293.426 1571.62 -2.83724e-11 -441.025 1710.95 -3.98726e-11 -589.215 1849.69 -5.1387e-11 -737.995 1987.85 -6.28446e-11 -887.365 2125.41 -7.43306e-11 -1037.33 2262.37 -8.59019e-11 -1187.88 2398.75 -9.74163e-11 -1339.02 2534.54 -1.08931e-10 -1490.75 2669.74 -1.20303e-10 2546.35 -1629.36 2.55538e-10 2408.79 -1478.94 2.39731e-10 2270.77 -1328.98 2.23694e-10 2132.29 -1179.48 2.07827e-10 1993.36 -1030.44 1.91835e-10 1853.96 -881.854 1.75844e-10 1714.1 -733.73 1.60002e-10 1573.79 -586.065 1.44017e-10 1433.01 -438.86 1.28104e-10 1291.78 -292.114 1.12177e-10 1150.08 -145.827 9.62634e-11 1007.93 -1.11413e-10 8.02933e-11 865.319 145.368 6.43658e-11 722.247 290.277 4.84241e-11 578.717 434.726 3.24966e-11 434.726 578.717 1.88521e-11 290.277 722.247 7.4753e-12 145.368 865.319 -3.92013e-12 -2.23736e-10 1007.93 -1.528e-11 -145.827 1150.08 -2.66897e-11 -292.114 1291.78 -3.80709e-11 -438.86 1433.01 -4.94521e-11 -586.065 1573.79 -6.07907e-11 -733.73 1714.1 -7.21861e-11 -881.854 1853.96 -8.35957e-11 -1030.44 1993.36 -9.49769e-11 -1179.48 2132.29 -1.06387e-10 -1328.98 2270.77 -1.17711e-10 -1478.94 2408.79 -1.29064e-10 -1629.36 2546.35 -1.40473e-10 2421.06 -1766.07 2.3895e-10 2281.27 -1617.09 2.22697e-10 2141.15 -1468.44 2.0633e-10 2000.71 -1320.12 1.90087e-10 1859.93 -1172.13 1.73775e-10 1718.83 -1024.47 1.57579e-10 1577.4 -877.13 1.41182e-10 1435.64 -730.121 1.24901e-10 1293.55 -583.441 1.08599e-10 1151.13 -437.088 9.23115e-11 1008.39 -291.064 7.60025e-11 865.319 -145.368 5.97007e-11 721.919 -1.16415e-10 4.34272e-11 578.192 145.04 2.71253e-11 434.136 289.752 1.08519e-11 289.752 434.136 -2.9479e-12 145.04 578.192 -1.42101e-11 -2.24418e-10 721.919 -2.54865e-11 -145.368 865.319 -3.67381e-11 -291.064 1008.39 -4.80216e-11 -437.088 1151.13 -5.92625e-11 -583.441 1293.55 -7.05602e-11 -730.121 1435.64 -8.18508e-11 -877.13 1577.4 -9.30278e-11 -1024.47 1718.83 -1.04347e-10 -1172.13 1859.93 -1.15595e-10 -1320.12 2000.71 -1.26871e-10 -1468.44 2141.15 -1.38148e-10 -1617.09 2281.27 -1.49481e-10 -1766.07 2421.06 -1.60615e-10 2293.87 -1900.87 2.22433e-10 2151.98 -1753.47 2.05691e-10 2009.89 -1606.27 1.88993e-10 1867.61 -1459.26 1.7242e-10 1725.13 -1312.45 1.55773e-10 1582.45 -1165.83 1.39116e-10 1439.57 -1019.41 1.22432e-10 1296.5 -873.193 1.0577e-10 1153.23 -727.168 8.90977e-11 1009.77 -581.341 7.24285e-11 866.106 -435.711 5.57843e-11 722.247 -290.277 3.91364e-11 578.192 -145.04 2.24886e-11 433.939 -1.22782e-10 5.80524e-12 289.489 144.843 -1.08639e-11 144.843 289.489 -2.47563e-11 -2.22599e-10 433.939 -3.58991e-11 -145.04 578.192 -4.70654e-11 -290.277 722.247 -5.8157e-11 -435.711 866.106 -6.93642e-11 -581.341 1009.77 -8.04896e-11 -727.168 1153.23 -9.16186e-11 -873.193 1296.5 -1.02797e-10 -1019.41 1439.57 -1.13919e-10 -1165.83 1582.45 -1.25055e-10 -1312.45 1725.13 -1.36227e-10 -1459.26 1867.61 -1.47356e-10 -1606.27 2009.89 -1.584e-10 -1753.47 2151.98 -1.69571e-10 -1900.87 2293.87 -1.808e-10 2164.77 -2033.78 2.05845e-10 2020.91 -1888.08 1.88722e-10 1876.99 -1742.45 1.71745e-10 1733 -1596.88 1.54668e-10 1588.94 -1451.38 1.37704e-10 1444.82 -1305.95 1.20735e-10 1300.64 -1160.58 1.03656e-10 1156.38 -1015.28 8.66291e-11 1012.06 -870.043 6.96371e-11 867.681 -724.872 5.25811e-11 723.232 -579.766 3.55909e-11 578.717 -434.726 1.85243e-11 434.136 -289.752 1.52868e-12 289.489 -144.843 -1.55166e-11 144.778 -1.29414e-10 -3.25371e-11 -2.18535e-10 144.778 -4.65594e-11 -144.843 289.489 -5.75725e-11 -289.752 434.136 -6.86007e-11 -434.726 578.717 -7.96302e-11 -579.766 723.232 -9.06695e-11 -724.872 867.681 -1.01683e-10 -870.043 1012.06 -1.12752e-10 -1015.28 1156.38 -1.23739e-10 -1160.58 1300.64 -1.34782e-10 -1305.95 1444.82 -1.45799e-10 -1451.38 1588.94 -1.56752e-10 -1596.88 1733 -1.67766e-10 -1742.45 1876.99 -1.78833e-10 -1888.08 2020.91 -1.8979e-10 -2033.78 2164.77 -2.00917e-10 2033.78 -2164.77 1.86283e-10 1888.08 -2020.91 1.69347e-10 1742.45 -1876.99 1.52457e-10 1596.88 -1733 1.35449e-10 1451.38 -1588.94 1.18583e-10 1305.95 -1444.82 1.01694e-10 1160.58 -1300.64 8.46949e-11 1015.28 -1156.38 6.77813e-11 870.043 -1012.06 5.08109e-11 724.872 -867.681 3.3836e-11 579.766 -723.232 1.69322e-11 434.726 -578.717 1.77636e-15 289.752 -434.136 -1.69127e-11 144.843 -289.489 -3.38716e-11 -2.12083e-10 -144.778 -5.08091e-11 -144.778 -1.3668e-10 -6.48024e-11 -289.489 144.843 -7.58664e-11 -434.136 289.752 -8.68967e-11 -578.717 434.726 -9.79599e-11 -723.232 579.766 -1.08987e-10 -867.681 724.872 -1.2008e-10 -1012.06 870.043 -1.31118e-10 -1156.38 1015.28 -1.42135e-10 -1300.64 1160.58 -1.53189e-10 -1444.82 1305.95 -1.64206e-10 -1588.94 1451.38 -1.75248e-10 -1733 1596.88 -1.86336e-10 -1876.99 1742.45 -1.97378e-10 -2020.91 1888.08 -2.08473e-10 -2164.77 2033.78 -2.19455e-10 1900.87 -2293.87 1.63908e-10 1753.47 -2151.98 1.47519e-10 1606.27 -2009.89 1.31128e-10 1459.26 -1867.61 1.14781e-10 1312.45 -1725.13 9.82983e-11 1165.83 -1582.45 8.19291e-11 1019.41 -1439.57 6.54907e-11 873.193 -1296.5 4.90985e-11 727.168 -1153.23 3.2756e-11 581.341 -1009.77 1.63531e-11 435.711 -866.106 -8.52651e-14 290.277 -722.247 -1.64775e-11 145.04 -578.192 -3.28768e-11 -2.11116e-10 -433.939 -4.9269e-11 -144.843 -289.489 -6.56826e-11 -289.489 -144.843 -7.94795e-11 -433.939 -1.41085e-10 -9.07026e-11 -578.192 145.04 -1.01888e-10 -722.247 290.277 -1.13154e-10 -866.106 435.711 -1.24377e-10 -1009.77 581.341 -1.35628e-10 -1153.23 727.168 -1.46777e-10 -1296.5 873.193 -1.58032e-10 -1439.57 1019.41 -1.69194e-10 -1582.45 1165.83 -1.80457e-10 -1725.13 1312.45 -1.91548e-10 -1867.61 1459.26 -2.02917e-10 -2009.89 1606.27 -2.14115e-10 -2151.98 1753.47 -2.25342e-10 -2293.87 1900.87 -2.36483e-10 1766.07 -2421.06 1.41512e-10 1617.09 -2281.27 1.25746e-10 1468.44 -2141.15 1.09837e-10 1320.12 -2000.71 9.39053e-11 1172.13 -1859.93 7.80354e-11 1024.47 -1718.83 6.21583e-11 877.13 -1577.4 4.63487e-11 730.121 -1435.64 3.04539e-11 583.441 -1293.55 1.46301e-11 437.088 -1151.13 -1.19371e-12 291.064 -1008.39 -1.70957e-11 145.368 -865.319 -3.29479e-11 -2.09297e-10 -721.919 -4.88143e-11 -145.04 -578.192 -6.46452e-11 -289.752 -434.136 -8.05471e-11 -434.136 -289.752 -9.41585e-11 -578.192 -145.04 -1.05587e-10 -721.919 -1.45064e-10 -1.16938e-10 -865.319 145.368 -1.28331e-10 -1008.39 291.064 -1.39707e-10 -1151.13 437.088 -1.51097e-10 -1293.55 583.441 -1.62458e-10 -1435.64 730.121 -1.73827e-10 -1577.4 877.13 -1.85267e-10 -1718.83 1024.47 -1.96664e-10 -1859.93 1172.13 -2.0799e-10 -2000.71 1320.12 -2.19387e-10 -2141.15 1468.44 -2.30841e-10 -2281.27 1617.09 -2.42125e-10 -2421.06 1766.07 -2.53578e-10 1629.36 -2546.35 1.19144e-10 1478.94 -2408.79 1.03738e-10 1328.98 -2270.77 8.84199e-11 1179.48 -2132.29 7.32214e-11 1030.44 -1993.36 5.78524e-11 881.854 -1853.96 4.25615e-11 733.73 -1714.1 2.72138e-11 586.065 -1573.79 1.19371e-11 438.86 -1433.01 -3.50298e-12 292.114 -1291.78 -1.88152e-11 145.827 -1150.08 -3.40918e-11 -2.08161e-10 -1007.93 -4.94396e-11 -145.368 -865.319 -6.47731e-11 -290.277 -722.247 -8.0135e-11 -434.726 -578.717 -9.54259e-11 -578.717 -434.726 -1.08835e-10 -722.247 -290.277 -1.20416e-10 -865.319 -145.368 -1.31955e-10 -1007.93 -1.46656e-10 -1.43537e-10 -1150.08 145.827 -1.5504e-10 -1291.78 292.114 -1.66665e-10 -1433.01 438.86 -1.7819e-10 -1573.79 586.065 -1.89715e-10 -1714.1 733.73 -2.01311e-10 -1853.96 881.854 -2.1285e-10 -1993.36 1030.44 -2.24418e-10 -2132.29 1179.48 -2.35929e-10 -2270.77 1328.98 -2.47439e-10 -2408.79 1478.94 -2.59092e-10 -2546.35 1629.36 -2.7066e-10 1490.75 -2669.74 9.67475e-11 1339.02 -2534.54 8.1938e-11 1187.88 -2398.75 6.71037e-11 1037.33 -2262.37 5.23315e-11 887.365 -2125.41 3.75664e-11 737.995 -1987.85 2.28155e-11 589.215 -1849.69 8.05755e-12 441.025 -1710.95 -6.76437e-12 293.426 -1571.62 -2.16005e-11 146.418 -1431.7 -3.63514e-11 -2.08956e-10 -1291.19 -5.11307e-11 -145.827 -1150.08 -6.58957e-11 -291.064 -1008.39 -8.0675e-11 -435.711 -866.106 -9.54685e-11 -579.766 -723.232 -1.10276e-10 -723.232 -579.766 -1.23578e-10 -866.106 -435.711 -1.35273e-10 -1008.39 -291.064 -1.46997e-10 -1150.08 -145.827 -1.58735e-10 -1291.19 -1.47338e-10 -1.70402e-10 -1431.7 146.418 -1.82098e-10 -1571.62 293.426 -1.93893e-10 -1710.95 441.025 -2.05603e-10 -1849.69 589.215 -2.17341e-10 -1987.85 737.995 -2.29107e-10 -2125.41 887.365 -2.40789e-10 -2262.37 1037.33 -2.52442e-10 -2398.75 1187.88 -2.6418e-10 -2534.54 1339.02 -2.75975e-10 -2669.74 1490.75 -2.87685e-10 1350.24 -2791.22 7.43512e-11 1197.33 -2658.52 6.00124e-11 1045.13 -2525.09 4.58478e-11 893.664 -2390.95 3.16263e-11 742.916 -2256.08 1.73017e-11 592.889 -2120.48 3.07665e-12 443.584 -1984.17 -1.11982e-11 295.001 -1847.14 -2.5409e-11 147.14 -1709.38 -3.96199e-11 -2.1123e-10 -1570.9 -5.39018e-11 -146.418 -1431.7 -6.80984e-11 -292.114 -1291.78 -8.24514e-11 -437.088 -1151.13 -9.66054e-11 -581.341 -1009.77 -1.10902e-10 -724.872 -867.681 -1.25141e-10 -867.681 -724.872 -1.38218e-10 -1009.77 -581.341 -1.50074e-10 -1151.13 -437.088 -1.62018e-10 -1291.78 -292.114 -1.73898e-10 -1431.7 -146.418 -1.85821e-10 -1570.9 -1.47793e-10 -1.97701e-10 -1709.38 147.14 -2.09582e-10 -1847.14 295.001 -2.2149e-10 -1984.17 443.584 -2.33342e-10 -2120.48 592.889 -2.45279e-10 -2256.08 742.916 -2.57131e-10 -2390.95 893.664 -2.69097e-10 -2525.09 1045.13 -2.8092e-10 -2658.52 1197.33 -2.92744e-10 -2791.22 1350.24 -3.04624e-10 1207.82 -2910.81 5.19549e-11 1053.86 -2780.73 3.82201e-11 900.751 -2649.79 2.45421e-11 748.493 -2518.01 1.08642e-11 597.089 -2385.37 -2.86349e-12 446.537 -2251.88 -1.65556e-11 296.838 -2117.53 -3.03686e-11 147.993 -1982.33 -4.40821e-11 -2.11003e-10 -1846.28 -5.77813e-11 -147.14 -1709.38 -7.14238e-11 -293.426 -1571.62 -8.51514e-11 -438.86 -1433.01 -9.88507e-11 -583.441 -1293.55 -1.12578e-10 -727.168 -1153.23 -1.26334e-10 -870.043 -1012.06 -1.40005e-10 -1012.06 -870.043 -1.52898e-10 -1153.23 -727.168 -1.64967e-10 -1293.55 -583.441 -1.77039e-10 -1433.01 -438.86 -1.89132e-10 -1571.62 -293.426 -2.01169e-10 -1709.38 -147.14 -2.13248e-10 -1846.28 -1.46429e-10 -2.25299e-10 -1982.33 147.993 -2.3735e-10 -2117.53 296.838 -2.49344e-10 -2251.88 446.537 -2.6148e-10 -2385.37 597.089 -2.73644e-10 -2518.01 748.493 -2.85638e-10 -2649.79 900.751 -2.97746e-10 -2780.73 1053.86 -3.09683e-10 -2910.81 1207.82 -3.21734e-10 1063.51 -3028.48 2.96154e-11 908.625 -2901.16 1.64242e-11 754.727 -2772.85 3.33955e-12 601.813 -2643.56 -9.96891e-12 449.883 -2513.28 -2.31921e-11 298.938 -2382.02 -3.63372e-11 148.977 -2249.78 -4.9539e-11 -2.11685e-10 -2116.55 -6.26557e-11 -147.993 -1982.33 -7.58291e-11 -295.001 -1847.14 -8.90168e-11 -441.025 -1710.95 -1.02204e-10 -586.065 -1573.79 -1.15364e-10 -730.121 -1435.64 -1.28551e-10 -873.193 -1296.5 -1.41711e-10 -1015.28 -1156.38 -1.54898e-10 -1156.38 -1015.28 -1.67587e-10 -1296.5 -873.193 -1.79782e-10 -1435.64 -730.121 -1.92045e-10 -1573.79 -586.065 -2.04324e-10 -1710.95 -441.025 -2.16517e-10 -1847.14 -295.001 -2.28738e-10 -1982.33 -147.993 -2.40988e-10 -2116.55 -1.4461e-10 -2.53209e-10 -2249.78 148.977 -2.65459e-10 -2382.02 298.938 -2.7768e-10 -2513.28 449.883 -2.90015e-10 -2643.56 601.813 -3.02293e-10 -2772.85 754.727 -3.14458e-10 -2901.16 908.625 -3.26565e-10 -3028.48 1063.51 -3.389e-10 917.286 -3144.26 7.16227e-12 761.616 -3019.82 -5.44276e-12 607.062 -2894.27 -1.81117e-11 453.623 -2767.6 -3.08233e-11 301.3 -2639.82 -4.34426e-11 150.092 -2510.92 -5.59908e-11 -2.08729e-10 -2380.91 -6.87237e-11 -148.977 -2249.78 -8.12292e-11 -296.838 -2117.53 -9.39053e-11 -443.584 -1984.17 -1.06581e-10 -589.215 -1849.69 -1.19172e-10 -733.73 -1714.1 -1.31877e-10 -877.13 -1577.4 -1.44496e-10 -1019.41 -1439.57 -1.57115e-10 -1160.58 -1300.64 -1.69734e-10 -1300.64 -1160.58 -1.82276e-10 -1439.57 -1019.41 -1.94667e-10 -1577.4 -877.13 -2.07081e-10 -1714.1 -733.73 -2.19458e-10 -1849.69 -589.215 -2.31864e-10 -1984.17 -443.584 -2.44228e-10 -2117.53 -296.838 -2.56648e-10 -2249.78 -148.977 -2.69097e-10 -2380.91 -1.45519e-10 -2.81489e-10 -2510.92 150.092 -2.9388e-10 -2639.82 301.3 -3.06272e-10 -2767.6 453.623 -3.18607e-10 -2894.27 607.062 -3.30999e-10 -3019.82 761.616 -3.43675e-10 -3144.26 917.286 -3.55953e-10 769.162 -3258.13 -1.53477e-11 612.836 -3136.71 -2.73559e-11 457.757 -3014.05 -3.94849e-11 303.925 -2890.14 -5.16707e-11 151.339 -2764.98 -6.37073e-11 -2.0782e-10 -2638.57 -7.57581e-11 -150.092 -2510.92 -8.77947e-11 -298.938 -2382.02 -9.99023e-11 -446.537 -2251.88 -1.1201e-10 -592.889 -2120.48 -1.24118e-10 -737.995 -1987.85 -1.36225e-10 -881.854 -1853.96 -1.48333e-10 -1024.47 -1718.83 -1.60469e-10 -1165.83 -1582.45 -1.72463e-10 -1305.95 -1444.82 -1.84627e-10 -1444.82 -1305.95 -1.96877e-10 -1582.45 -1165.83 -2.09575e-10 -1718.83 -1024.47 -2.22116e-10 -1853.96 -881.854 -2.34678e-10 -1987.85 -737.995 -2.4724e-10 -2120.48 -592.889 -2.59774e-10 -2251.88 -446.537 -2.72451e-10 -2382.02 -298.938 -2.85013e-10 -2510.92 -150.092 -2.97518e-10 -2638.57 -1.4461e-10 -3.10138e-10 -2764.98 151.339 -3.22643e-10 -2890.14 303.925 -3.35319e-10 -3014.05 457.757 -3.47939e-10 -3136.71 612.836 -3.60274e-10 -3258.13 769.162 -3.72893e-10 619.135 -3370.1 -3.78577e-11 462.284 -3251.83 -4.92122e-11 306.812 -3132.19 -6.05738e-11 152.717 -3011.16 -7.23901e-11 -2.05318e-10 -2888.76 -8.40572e-11 -151.339 -2764.98 -9.54685e-11 -301.3 -2639.82 -1.06979e-10 -449.883 -2513.28 -1.18575e-10 -597.089 -2385.37 -1.30143e-10 -742.916 -2256.08 -1.41654e-10 -887.365 -2125.41 -1.5325e-10 -1030.44 -1993.36 -1.64789e-10 -1172.13 -1859.93 -1.76385e-10 -1312.45 -1725.13 -1.87867e-10 -1451.38 -1588.94 -1.9952e-10 -1588.94 -1451.38 -2.11649e-10 -1725.13 -1312.45 -2.24389e-10 -1859.93 -1172.13 -2.37122e-10 -1993.36 -1030.44 -2.49884e-10 -2125.41 -887.365 -2.62531e-10 -2256.08 -742.916 -2.75378e-10 -2385.37 -597.089 -2.88139e-10 -2513.28 -449.883 -3.00759e-10 -2639.82 -301.3 -3.13548e-10 -2764.98 -151.339 -3.26168e-10 -2888.76 -1.47338e-10 -3.39014e-10 -3011.16 152.717 -3.51804e-10 -3132.19 306.812 -3.6448e-10 -3251.83 462.284 -3.77213e-10 -3370.1 619.135 -3.89946e-10 467.205 -3480.17 -5.9913e-11 309.961 -3365.18 -7.0969e-11 154.226 -3248.68 -8.21316e-11 -1.98384e-10 -3130.68 -9.31664e-11 -152.717 -3011.16 -1.0418e-10 -303.925 -2890.14 -1.15278e-10 -453.623 -2767.6 -1.26221e-10 -601.813 -2643.56 -1.37135e-10 -748.493 -2518.01 -1.48304e-10 -893.664 -2390.95 -1.59247e-10 -1037.33 -2262.37 -1.70189e-10 -1179.48 -2132.29 -1.81331e-10 -1320.12 -2000.71 -1.92301e-10 -1459.26 -1867.61 -2.03386e-10 -1596.88 -1733 -2.143e-10 -1733 -1596.88 -2.26368e-10 -1867.61 -1459.26 -2.39211e-10 -2000.71 -1320.12 -2.52157e-10 -2132.29 -1179.48 -2.65032e-10 -2262.37 -1037.33 -2.78021e-10 -2390.95 -893.664 -2.90754e-10 -2518.01 -748.493 -3.03828e-10 -2643.56 -601.813 -3.16675e-10 -2767.6 -453.623 -3.29578e-10 -2890.14 -303.925 -3.42652e-10 -3011.16 -152.717 -3.55385e-10 -3130.68 -1.49157e-10 -3.68345e-10 -3248.68 154.226 -3.81192e-10 -3365.18 309.961 -3.94039e-10 -3480.17 467.205 -4.07113e-10 313.373 -3588.34 -8.25366e-11 155.866 -3476.76 -9.30527e-11 -1.91562e-10 -3363.54 -1.03341e-10 -154.226 -3248.68 -1.14099e-10 -306.812 -3132.19 -1.24246e-10 -457.757 -3014.05 -1.3506e-10 -607.062 -2894.27 -1.45292e-10 -754.727 -2772.85 -1.55836e-10 -900.751 -2649.79 -1.66295e-10 -1045.13 -2525.09 -1.7684e-10 -1187.88 -2398.75 -1.87242e-10 -1328.98 -2270.77 -1.97701e-10 -1468.44 -2141.15 -2.08217e-10 -1606.27 -2009.89 -2.18677e-10 -1742.45 -1876.99 -2.2925e-10 -1876.99 -1742.45 -2.40977e-10 -2009.89 -1606.27 -2.54076e-10 -2141.15 -1468.44 -2.67164e-10 -2270.77 -1328.98 -2.80323e-10 -2398.75 -1187.88 -2.93397e-10 -2525.09 -1045.13 -3.06386e-10 -2649.79 -900.751 -3.19517e-10 -2772.85 -754.727 -3.32477e-10 -2894.27 -607.062 -3.45551e-10 -3014.05 -457.757 -3.58682e-10 -3132.19 -306.812 -3.7187e-10 -3248.68 -154.226 -3.8483e-10 -3363.54 -1.56433e-10 -3.9779e-10 -3476.76 155.866 -4.11205e-10 -3588.34 313.373 -4.24052e-10 157.638 -3694.6 -1.05047e-10 -1.80307e-10 -3586.56 -1.1492e-10 -155.866 -3476.76 -1.24658e-10 -309.961 -3365.18 -1.34648e-10 -462.284 -3251.83 -1.44567e-10 -612.836 -3136.71 -1.54529e-10 -761.616 -3019.82 -1.64505e-10 -908.625 -2901.16 -1.74538e-10 -1053.86 -2780.73 -1.84315e-10 -1197.33 -2658.52 -1.94404e-10 -1339.02 -2534.54 -2.04238e-10 -1478.94 -2408.79 -2.143e-10 -1617.09 -2281.27 -2.24134e-10 -1753.47 -2151.98 -2.34195e-10 -1888.08 -2020.91 -2.44142e-10 -2020.91 -1888.08 -2.55689e-10 -2151.98 -1753.47 -2.68997e-10 -2281.27 -1617.09 -2.82171e-10 -2408.79 -1478.94 -2.95415e-10 -2534.54 -1339.02 -3.0866e-10 -2658.52 -1197.33 -3.21904e-10 -2780.73 -1053.86 -3.35206e-10 -2901.16 -908.625 -3.48393e-10 -3019.82 -761.616 -3.61695e-10 -3136.71 -612.836 -3.75053e-10 -3251.83 -462.284 -3.88241e-10 -3365.18 -309.961 -4.01428e-10 -3476.76 -155.866 -4.14843e-10 -3586.56 -1.6189e-10 -4.28031e-10 -3694.6 157.638 -4.40991e-10 -1.65528e-10 -3798.96 -1.27329e-10 -157.638 -3694.6 -1.36779e-10 -313.373 -3588.34 -1.46102e-10 -467.205 -3480.17 -1.55552e-10 -619.135 -3370.1 -1.64931e-10 -769.162 -3258.13 -1.7431e-10 -917.286 -3144.26 -1.8369e-10 -1063.51 -3028.48 -1.9304e-10 -1207.82 -2910.81 -2.02533e-10 -1350.24 -2791.22 -2.11855e-10 -1490.75 -2669.74 -2.21235e-10 -1629.36 -2546.35 -2.30727e-10 -1766.07 -2421.06 -2.40107e-10 -1900.87 -2293.87 -2.49543e-10 -2033.78 -2164.77 -2.58922e-10 -2164.77 -2033.78 -2.70404e-10 -2293.87 -1900.87 -2.83805e-10 -2421.06 -1766.07 -2.97234e-10 -2546.35 -1629.36 -3.10592e-10 -2669.74 -1490.75 -3.24007e-10 -2791.22 -1350.24 -3.37366e-10 -2910.81 -1207.82 -3.50838e-10 -3028.48 -1063.51 -3.64253e-10 -3144.26 -917.286 -3.77781e-10 -3258.13 -769.162 -3.91196e-10 -3370.1 -619.135 -4.04725e-10 -3480.17 -467.205 -4.1814e-10 -3588.34 -313.373 -4.31442e-10 -3694.6 -157.638 -4.44743e-10 -3798.96 -1.69166e-10 -4.58158e-10 3913.59 -5.27507e-11 4.36273e-10 3806.08 162.395 4.22224e-10 3696.61 322.829 4.08111e-10 3585.19 481.303 3.93978e-10 3471.8 637.818 3.79998e-10 3356.45 792.371 3.65816e-10 3239.14 944.965 3.51847e-10 3119.87 1095.6 3.37707e-10 2998.64 1244.27 3.23638e-10 2875.45 1390.98 3.09569e-10 2750.3 1535.74 2.95557e-10 2623.19 1678.53 2.81503e-10 2494.12 1819.36 2.67448e-10 2363.09 1958.23 2.53365e-10 2230.1 2095.14 2.39311e-10 2095.14 2230.1 2.26509e-10 1958.23 2363.09 2.14889e-10 1819.36 2494.12 2.03308e-10 1678.53 2623.19 1.91683e-10 1535.74 2750.3 1.80137e-10 1390.98 2875.45 1.68583e-10 1244.27 2998.64 1.5693e-10 1095.6 3119.87 1.45434e-10 944.965 3239.14 1.33781e-10 792.371 3356.45 1.22355e-10 637.818 3471.8 1.10589e-10 481.303 3585.19 9.91633e-11 322.829 3696.61 8.73683e-11 162.395 3806.08 7.59712e-11 -1.63709e-10 3913.59 6.44036e-11 3806.08 -162.395 4.20139e-10 3694.79 -4.75353e-11 4.05912e-10 3581.67 160.57 3.91686e-10 3466.73 319.314 3.77456e-10 3349.96 476.234 3.63283e-10 3231.37 631.328 3.49178e-10 3110.95 784.598 3.34909e-10 2988.7 936.042 3.20804e-10 2864.63 1085.66 3.06585e-10 2738.74 1233.46 2.92422e-10 2611.02 1379.43 2.78175e-10 2481.48 1523.57 2.6397e-10 2350.11 1665.89 2.49822e-10 2216.92 1806.38 2.35646e-10 2081.9 1945.05 2.21412e-10 1945.05 2081.9 2.08499e-10 1806.38 2216.92 1.9678e-10 1665.89 2350.11 1.85058e-10 1523.57 2481.48 1.73407e-10 1379.43 2611.02 1.61721e-10 1233.46 2738.74 1.49978e-10 1085.66 2864.63 1.38277e-10 936.042 2988.7 1.2652e-10 784.598 3110.95 1.14904e-10 631.328 3231.37 1.03076e-10 476.234 3349.96 9.14461e-11 319.314 3466.73 7.97597e-11 160.57 3581.67 6.80733e-11 -1.75476e-10 3694.79 5.63016e-11 -162.395 3806.08 4.45015e-11 3696.61 -322.829 4.04118e-10 3581.67 -160.57 3.89796e-10 3465.04 -4.02309e-11 3.75272e-10 3346.71 158.88 3.61009e-10 3226.7 316.07 3.46789e-10 3105 471.57 3.32469e-10 2981.61 625.38 3.18185e-10 2856.52 777.501 3.0383e-10 2729.75 927.931 2.89531e-10 2601.29 1076.67 2.7519e-10 2471.14 1223.72 2.60878e-10 2339.29 1369.08 2.46537e-10 2205.76 1512.75 2.32253e-10 2070.54 1654.74 2.17983e-10 1933.63 1795.03 2.03571e-10 1795.03 1933.63 1.90544e-10 1654.74 2070.54 1.78625e-10 1512.75 2205.76 1.66852e-10 1369.08 2339.29 1.55053e-10 1223.72 2471.14 1.4322e-10 1076.67 2601.29 1.31315e-10 927.931 2729.75 1.1951e-10 777.501 2856.52 1.07733e-10 625.38 2981.61 9.58569e-11 471.57 3105 8.39096e-11 316.07 3226.7 7.21328e-11 158.88 3346.71 6.02707e-11 -1.84059e-10 3465.04 4.85224e-11 -160.57 3581.67 3.66035e-11 -322.829 3696.61 2.48836e-11 3585.19 -481.303 3.88097e-10 3466.73 -319.314 3.73571e-10 3346.71 -158.88 3.59128e-10 3225.15 -3.54703e-11 3.44683e-10 3102.02 157.325 3.30238e-10 2977.35 313.096 3.15796e-10 2851.12 467.311 3.01333e-10 2723.33 619.973 2.8687e-10 2593.99 771.079 2.72485e-10 2463.09 920.631 2.58015e-10 2330.64 1068.63 2.43538e-10 2196.64 1215.07 2.2916e-10 2061.08 1359.96 2.14626e-10 1923.96 1503.29 2.0022e-10 1785.29 1645.07 1.85828e-10 1645.07 1785.29 1.72563e-10 1503.29 1923.96 1.60658e-10 1359.96 2061.08 1.48666e-10 1215.07 2196.64 1.36657e-10 1068.63 2330.64 1.2474e-10 920.631 2463.09 1.12724e-10 771.079 2593.99 1.008e-10 619.973 