<?xml version="1.0"?> 
<VTKFile type="StructuredGrid" version="0.1"> 
<StructuredGrid WholeExtent="0 29 0 29 0 29"> 
<Piece Extent="0 29 0 29 0 29"> 
<PointData>
<DataArray type="Float32" Name="hfield" format="ascii" NumberOfComponents="3"> 
-1.82359 5.42144e-12 0 -1.77835 -0.0805263 0 -1.73185 -0.159792 0 -1.68409 -0.237798 0 -1.63507 -0.314543 0 -1.58479 -0.390029 0 -1.53325 -0.464253 0 -1.48045 -0.537218 0 -1.42639 -0.608922 0 -1.37107 -0.679366 0 -1.31449 -0.74855 0 -1.25665 -0.816473 0 -1.19755 -0.883137 0 -1.13719 -0.94854 0 -1.07556 -1.01268 0 -1.01268 -1.07556 0 -0.94854 -1.13719 0 -0.883137 -1.19755 0 -0.816473 -1.25665 0 -0.74855 -1.31449 0 -0.679366 -1.37107 0 -0.608922 -1.42639 0 -0.537218 -1.48045 0 -0.464253 -1.53325 0 -0.390029 -1.58479 0 -0.314543 -1.63507 0 -0.237798 -1.68409 0 -0.159792 -1.73185 0 -0.0805263 -1.77835 0 3.66818e-12 -1.82359 0 -1.77835 0.0805263 0 -1.73068 5.0761e-12 0 -1.68183 -0.0793529 0 -1.63181 -0.157532 0 -1.58062 -0.234539 0 -1.52826 -0.310371 0 -1.47472 -0.385031 0 -1.42 -0.458517 0 -1.36412 -0.53083 0 -1.30706 -0.601969 0 -1.24883 -0.671935 0 -1.18942 -0.740728 0 -1.12884 -0.808347 0 -1.06709 -0.874793 0 -1.00416 -0.940065 0 -0.940065 -1.00416 0 -0.874793 -1.06709 0 -0.808347 -1.12884 0 -0.740728 -1.18942 0 -0.671935 -1.24883 0 -0.601969 -1.30706 0 -0.53083 -1.36412 0 -0.458517 -1.42 0 -0.385031 -1.47472 0 -0.310371 -1.52826 0 -0.234539 -1.58062 0 -0.157532 -1.63181 0 -0.0793529 -1.68183 0 4.25804e-12 -1.73068 0 0.0805263 -1.77835 0 -1.73185 0.159792 0 -1.68183 0.0793529 0 -1.63073 4.75153e-12 0 -1.57853 -0.0782665 0 -1.52526 -0.155446 0 -1.47089 -0.23154 0 -1.41544 -0.306547 0 -1.3589 -0.380468 0 -1.30128 -0.453302 0 -1.24257 -0.52505 0 -1.18277 -0.595711 0 -1.12189 -0.665286 0 -1.05992 -0.733774 0 -0.996863 -0.801176 0 -0.932721 -0.867492 0 -0.867492 -0.932721 0 -0.801176 -0.996863 0 -0.733774 -1.05992 0 -0.665286 -1.12189 0 -0.595711 -1.18277 0 -0.52505 -1.24257 0 -0.453302 -1.30128 0 -0.380468 -1.3589 0 -0.306547 -1.41544 0 -0.23154 -1.47089 0 -0.155446 -1.52526 0 -0.0782665 -1.57853 0 4.81959e-12 -1.63073 0 0.0793529 -1.68183 0 0.159792 -1.73185 0 -1.68409 0.237798 0 -1.63181 0.157532 0 -1.57853 0.0782665 0 -1.52426 4.44139e-12 0 -1.46898 -0.0772669 0 -1.4127 -0.153534 0 -1.35543 -0.228802 0 -1.29715 -0.30307 0 -1.23788 -0.376339 0 -1.1776 -0.448609 0 -1.11633 -0.519878 0 -1.05405 -0.590148 0 -0.990779 -0.659419 0 -0.926506 -0.72769 0 -0.861234 -0.794962 0 -0.794962 -0.861234 0 -0.72769 -0.926506 0 -0.659419 -0.990779 0 -0.590148 -1.05405 0 -0.519878 -1.11633 0 -0.448609 -1.1776 0 -0.376339 -1.23788 0 -0.30307 -1.29715 0 -0.228802 -1.35543 0 -0.153534 -1.4127 0 -0.0772669 -1.46898 0 5.34017e-12 -1.52426 0 0.0782665 -1.57853 0 0.157532 -1.63181 0 0.237798 -1.68409 0 -1.63507 0.314543 0 -1.58062 0.234539 0 -1.52526 0.155446 0 -1.46898 0.0772669 0 -1.41179 4.15179e-12 0 -1.35369 -0.0763543 0 -1.29467 -0.151796 0 -1.23475 -0.226325 0 -1.17391 -0.299942 0 -1.11215 -0.372645 0 -1.04949 -0.444437 0 -0.985912 -0.515315 0 -0.921422 -0.585281 0 -0.856019 -0.654334 0 -0.789703 -0.722475 0 -0.722475 -0.789703 0 -0.654334 -0.856019 0 -0.585281 -0.921422 0 -0.515315 -0.985912 0 -0.444437 -1.04949 0 -0.372645 -1.11215 0 -0.299942 -1.17391 0 -0.226325 -1.23475 0 -0.151796 -1.29467 0 -0.0763543 -1.35369 0 5.82623e-12 -1.41179 0 0.0772669 -1.46898 0 0.155446 -1.52526 0 0.234539 -1.58062 0 0.314543 -1.63507 0 -1.58479 0.390029 0 -1.52826 0.310371 0 -1.47089 0.23154 0 -1.4127 0.153534 0 -1.35369 0.0763543 0 -1.29385 3.884e-12 0 -1.23318 -0.0755286 0 -1.17169 -0.150232 0 -1.10937 -0.224109 0 -1.04623 -0.29716 0 -0.982262 -0.369386 0 -0.917467 -0.440786 0 -0.851847 -0.51136 0 -0.785401 -0.581109 0 -0.718129 -0.650032 0 -0.650032 -0.718129 0 -0.581109 -0.785401 0 -0.51136 -0.851847 0 -0.440786 -0.917467 0 -0.369386 -0.982262 0 -0.29716 -1.04623 0 -0.224109 -1.10937 0 -0.150232 -1.17169 0 -0.0755286 -1.23318 0 6.27698e-12 -1.29385 0 0.0763543 -1.35369 0 0.153534 -1.4127 0 0.23154 -1.47089 0 0.310371 -1.52826 0 0.390029 -1.58479 0 -1.53325 0.464253 0 -1.47472 0.385031 0 -1.41544 0.306547 0 -1.35543 0.228802 0 -1.29467 0.151796 0 -1.23318 0.0755286 0 -1.17095 3.63132e-12 0 -1.10798 -0.0747898 0 -1.04427 -0.148841 0 -0.979828 -0.222153 0 -0.914642 -0.294727 0 -0.848718 -0.366561 0 -0.782055 -0.437657 0 -0.714653 -0.508014 0 -0.646512 -0.577633 0 -0.577633 -0.646512 0 -0.508014 -0.714653 0 -0.437657 -0.782055 0 -0.366561 -0.848718 0 -0.294727 -0.914642 0 -0.222153 -0.979828 0 -0.148841 -1.04427 0 -0.0747898 -1.10798 0 6.6922e-12 -1.17095 0 0.0755286 -1.23318 0 0.151796 -1.29467 0 0.228802 -1.35543 0 0.306547 -1.41544 0 0.385031 -1.47472 0 0.464253 -1.53325 0 -1.48045 0.537218 0 -1.42 0.458517 0 -1.3589 0.380468 0 -1.29715 0.30307 0 -1.23475 0.226325 0 -1.17169 0.150232 0 -1.10798 0.0747898 0 -1.04362 3.39329e-12 0 -0.978611 -0.0741379 0 -0.912947 -0.147624 0 -0.846632 -0.220458 0 -0.779665 -0.292641 0 -0.712045 -0.364171 0 -0.643774 -0.43505 0 -0.574851 -0.505276 0 -0.505276 -0.574851 0 -0.43505 -0.643774 0 -0.364171 -0.712045 0 -0.292641 -0.779665 0 -0.220458 -0.846632 0 -0.147624 -0.912947 0 -0.0741379 -0.978611 0 7.07612e-12 -1.04362 0 0.0747898 -1.10798 0 0.150232 -1.17169 0 0.226325 -1.23475 0 0.30307 -1.29715 0 0.380468 -1.3589 0 0.458517 -1.42 0 0.537218 -1.48045 0 -1.42639 0.608922 0 -1.36412 0.53083 0 -1.30128 0.453302 0 -1.23788 0.376339 0 -1.17391 0.299942 0 -1.10937 0.224109 0 -1.04427 0.148841 0 -0.978611 0.0741379 0 -0.912382 3.17346e-12 0 -0.845589 -0.073573 0 -0.77823 -0.146581 0 -0.710307 -0.219024 0 -0.641819 -0.290902 0 -0.572765 -0.362215 0 -0.503147 -0.432964 0 -0.432964 -0.503147 0 -0.362215 -0.572765 0 -0.290902 -0.641819 0 -0.219024 -0.710307 0 -0.146581 -0.77823 0 -0.073573 -0.845589 0 7.42317e-12 -0.912382 0 0.0741379 -0.978611 0 0.148841 -1.04427 0 0.224109 -1.10937 0 0.299942 -1.17391 0 0.376339 -1.23788 0 0.453302 -1.30128 0 0.53083 -1.36412 0 0.608922 -1.42639 0 -1.37107 0.679366 0 -1.30706 0.601969 0 -1.24257 0.52505 0 -1.1776 0.448609 0 -1.11215 0.372645 0 -1.04623 0.29716 0 -0.979828 0.222153 0 -0.912947 0.147624 0 -0.845589 0.073573 0 -0.777752 2.96607e-12 0 -0.709438 -0.073095 0 -0.640645 -0.145712 0 -0.571375 -0.217851 0 -0.501626 -0.289512 0 -0.431399 -0.360694 0 -0.360694 -0.431399 0 -0.289512 -0.501626 0 -0.217851 -0.571375 0 -0.145712 -0.640645 0 -0.073095 -0.709438 0 7.73492e-12 -0.777752 0 0.073573 -0.845589 0 0.147624 -0.912947 0 0.222153 -0.979828 0 0.29716 -1.04623 0 0.372645 -1.11215 0 0.448609 -1.1776 0 0.52505 -1.24257 0 0.601969 -1.30706 0 0.679366 -1.37107 0 -1.31449 0.74855 0 -1.24883 0.671935 0 -1.18277 0.595711 0 -1.11633 0.519878 0 -1.04949 0.444437 0 -0.982262 0.369386 0 -0.914642 0.294727 0 -0.846632 0.220458 0 -0.77823 0.146581 0 -0.709438 0.073095 0 -0.640254 2.77467e-12 0 -0.570679 -0.0727038 0 -0.500713 -0.145017 0 -0.430356 -0.216938 0 -0.359608 -0.288469 0 -0.288469 -0.359608 0 -0.216938 -0.430356 0 -0.145017 -0.500713 0 -0.0727038 -0.570679 0 8.01093e-12 -0.640254 0 0.073095 -0.709438 0 0.146581 -0.77823 0 0.220458 -0.846632 0 0.294727 -0.914642 0 0.369386 -0.982262 0 0.444437 -1.04949 0 0.519878 -1.11633 0 0.595711 -1.18277 0 0.671935 -1.24883 0 0.74855 -1.31449 0 -1.25665 0.816473 0 -1.18942 0.740728 0 -1.12189 0.665286 0 -1.05405 0.590148 0 -0.985912 0.515315 0 -0.917467 0.440786 0 -0.848718 0.366561 0 -0.779665 0.292641 0 -0.710307 0.219024 0 -0.640645 0.145712 0 -0.570679 0.0727038 0 -0.500409 2.59792e-12 0 -0.429835 -0.0723996 0 -0.358956 -0.144495 0 -0.287773 -0.216286 0 -0.216286 -0.287773 0 -0.144495 -0.358956 0 -0.0723996 -0.429835 0 8.25606e-12 -0.500409 0 0.0727038 -0.570679 0 0.145712 -0.640645 0 0.219024 -0.710307 0 0.292641 -0.779665 0 0.366561 -0.848718 0 0.440786 -0.917467 0 0.515315 -0.985912 0 0.590148 -1.05405 0 0.665286 -1.12189 0 0.740728 -1.18942 0 0.816473 -1.25665 0 -1.19755 0.883137 0 -1.12884 0.808347 0 -1.05992 0.733774 0 -0.990779 0.659419 0 -0.921422 0.585281 0 -0.851847 0.51136 0 -0.782055 0.437657 0 -0.712045 0.364171 0 -0.641819 0.290902 0 -0.571375 0.217851 0 -0.500713 0.145017 0 -0.429835 0.0723996 0 -0.358739 2.43361e-12 0 -0.287426 -0.0721823 0 -0.215895 -0.144147 0 -0.144147 -0.215895 0 -0.0721823 -0.287426 0 8.46423e-12 -0.358739 0 0.0723996 -0.429835 0 0.145017 -0.500713 0 0.217851 -0.571375 0 0.290902 -0.641819 0 0.364171 -0.712045 0 0.437657 -0.782055 0 0.51136 -0.851847 0 0.585281 -0.921422 0 0.659419 -0.990779 0 0.733774 -1.05992 0 0.808347 -1.12884 0 0.883137 -1.19755 0 -1.13719 0.94854 0 -1.06709 0.874793 0 -0.996863 0.801176 0 -0.926506 0.72769 0 -0.856019 0.654334 0 -0.785401 0.581109 0 -0.714653 0.508014 0 -0.643774 0.43505 0 -0.572765 0.362215 0 -0.501626 0.289512 0 -0.430356 0.216938 0 -0.358956 0.144495 0 -0.287426 0.0721823 0 -0.215765 2.28173e-12 0 -0.143974 -0.072052 0 -0.072052 -0.143974 0 8.63731e-12 -0.215765 0 0.0721823 -0.287426 0 0.144495 -0.358956 0 0.216938 -0.430356 0 0.289512 -0.501626 0 0.362215 -0.572765 0 0.43505 -0.643774 0 0.508014 -0.714653 0 0.581109 -0.785401 0 0.654334 -0.856019 0 0.72769 -0.926506 0 0.801176 -0.996863 0 0.874793 -1.06709 0 0.94854 -1.13719 0 -1.07556 1.01268 0 -1.00416 0.940065 0 -0.932721 0.867492 0 -0.861234 0.794962 0 -0.789703 0.722475 0 -0.718129 0.650032 0 -0.646512 0.577633 0 -0.574851 0.505276 0 -0.503147 0.432964 0 -0.431399 0.360694 0 -0.359608 0.288469 0 -0.287773 0.216286 0 -0.215895 0.144147 0 -0.143974 0.072052 0 -0.0720085 2.14139e-12 0 8.77512e-12 -0.0720085 0 0.072052 -0.143974 0 0.144147 -0.215895 0 0.216286 -0.287773 0 0.288469 -0.359608 0 0.360694 -0.431399 0 0.432964 -0.503147 0 0.505276 -0.574851 0 0.577633 -0.646512 0 0.650032 -0.718129 0 0.722475 -0.789703 0 0.794962 -0.861234 0 0.867492 -0.932721 0 0.940065 -1.00416 0 1.01268 -1.07556 0 -1.01268 1.07556 0 -0.940065 1.00416 0 -0.867492 0.932721 0 -0.794962 0.861234 0 -0.722475 0.789703 0 -0.650032 0.718129 0 -0.577633 0.646512 0 -0.505276 0.574851 0 -0.432964 0.503147 0 -0.360694 0.431399 0 -0.288469 0.359608 0 -0.216286 0.287773 0 -0.144147 0.215895 0 -0.072052 0.143974 0 8.86038e-12 0.0720085 0 0.0720085 2.01208e-12 0 0.143974 -0.072052 0 0.215895 -0.144147 0 0.287773 -0.216286 0 0.359608 -0.288469 0 0.431399 -0.360694 0 0.503147 -0.432964 0 0.574851 -0.505276 0 0.646512 -0.577633 0 0.718129 -0.650032 0 0.789703 -0.722475 0 0.861234 -0.794962 0 0.932721 -0.867492 0 1.00416 -0.940065 0 1.07556 -1.01268 0 -0.94854 1.13719 0 -0.874793 1.06709 0 -0.801176 0.996863 0 -0.72769 0.926506 0 -0.654334 0.856019 0 -0.581109 0.785401 0 -0.508014 0.714653 0 -0.43505 0.643774 0 -0.362215 0.572765 0 -0.289512 0.501626 0 -0.216938 0.430356 0 -0.144495 0.358956 0 -0.0721823 0.287426 0 8.892e-12 0.215765 0 0.072052 0.143974 0 0.143974 0.072052 0 0.215765 1.88649e-12 0 0.287426 -0.0721823 0 0.358956 -0.144495 0 0.430356 -0.216938 0 0.501626 -0.289512 0 0.572765 -0.362215 0 0.643774 -0.43505 0 0.714653 -0.508014 0 0.785401 -0.581109 0 0.856019 -0.654334 0 0.926506 -0.72769 0 0.996863 -0.801176 0 1.06709 -0.874793 0 1.13719 -0.94854 0 -0.883137 1.19755 0 -0.808347 1.12884 0 -0.733774 1.05992 0 -0.659419 0.990779 0 -0.585281 0.921422 0 -0.51136 0.851847 0 -0.437657 0.782055 0 -0.364171 0.712045 0 -0.290902 0.641819 0 -0.217851 0.571375 0 -0.145017 0.500713 0 -0.0723996 0.429835 0 8.89733e-12 0.358739 0 0.0721823 0.287426 0 0.144147 0.215895 0 0.215895 0.144147 0 0.287426 0.0721823 0 0.358739 1.76792e-12 0 0.429835 -0.0723996 0 0.500713 -0.145017 0 0.571375 -0.217851 0 0.641819 -0.290902 0 0.712045 -0.364171 0 0.782055 -0.437657 0 0.851847 -0.51136 0 0.921422 -0.585281 0 0.990779 -0.659419 0 1.05992 -0.733774 0 1.12884 -0.808347 0 1.19755 -0.883137 0 -0.816473 1.25665 0 -0.740728 1.18942 0 -0.665286 1.12189 0 -0.590148 1.05405 0 -0.515315 0.985912 0 -0.440786 0.917467 0 -0.366561 0.848718 0 -0.292641 0.779665 0 -0.219024 0.710307 0 -0.145712 0.640645 0 -0.0727038 0.570679 0 8.87401e-12 0.500409 0 0.0723996 0.429835 0 0.144495 0.358956 0 0.216286 0.287773 0 0.287773 0.216286 0 0.358956 0.144495 0 0.429835 0.0723996 0 0.500409 1.65334e-12 0 0.570679 -0.0727038 0 0.640645 -0.145712 0 0.710307 -0.219024 0 0.779665 -0.292641 0 0.848718 -0.366561 0 0.917467 -0.440786 0 0.985912 -0.515315 0 1.05405 -0.590148 0 1.12189 -0.665286 0 1.18942 -0.740728 0 1.25665 -0.816473 0 -0.74855 1.31449 0 -0.671935 1.24883 0 -0.595711 1.18277 0 -0.519878 1.11633 0 -0.444437 1.04949 0 -0.369386 0.982262 0 -0.294727 0.914642 0 -0.220458 0.846632 0 -0.146581 0.77823 0 -0.073095 0.709438 0 8.82117e-12 0.640254 0 0.0727038 0.570679 0 0.145017 0.500713 0 0.216938 0.430356 0 0.288469 0.359608 0 0.359608 0.288469 0 0.430356 0.216938 0 0.500713 0.145017 0 0.570679 0.0727038 0 0.640254 1.54499e-12 0 0.709438 -0.073095 0 0.77823 -0.146581 0 0.846632 -0.220458 0 0.914642 -0.294727 0 0.982262 -0.369386 0 1.04949 -0.444437 0 1.11633 -0.519878 0 1.18277 -0.595711 0 1.24883 -0.671935 0 1.31449 -0.74855 0 -0.679366 1.37107 0 -0.601969 1.30706 0 -0.52505 1.24257 0 -0.448609 1.1776 0 -0.372645 1.11215 0 -0.29716 1.04623 0 -0.222153 0.979828 0 -0.147624 0.912947 0 -0.073573 0.845589 0 8.74323e-12 0.777752 0 0.073095 0.709438 0 0.145712 0.640645 0 0.217851 0.571375 0 0.289512 0.501626 0 0.360694 0.431399 0 0.431399 0.360694 0 0.501626 0.289512 0 0.571375 0.217851 0 0.640645 0.145712 0 0.709438 0.073095 0 0.777752 1.44507e-12 0 0.845589 -0.073573 0 0.912947 -0.147624 0 0.979828 -0.222153 0 1.04623 -0.29716 0 1.11215 -0.372645 0 1.1776 -0.448609 0 1.24257 -0.52505 0 1.30706 -0.601969 0 1.37107 -0.679366 0 -0.608922 1.42639 0 -0.53083 1.36412 0 -0.453302 1.30128 0 -0.376339 1.23788 0 -0.299942 1.17391 0 -0.224109 1.10937 0 -0.148841 1.04427 0 -0.0741379 0.978611 0 8.63976e-12 0.912382 0 0.073573 0.845589 0 0.146581 0.77823 0 0.219024 0.710307 0 0.290902 0.641819 0 0.362215 0.572765 0 0.432964 0.503147 0 0.503147 0.432964 0 0.572765 0.362215 0 0.641819 0.290902 0 0.710307 0.219024 0 0.77823 0.146581 0 0.845589 0.073573 0 0.912382 1.3527e-12 0 0.978611 -0.0741379 0 1.04427 -0.148841 0 1.10937 -0.224109 0 1.17391 -0.299942 0 1.23788 -0.376339 0 1.30128 -0.453302 0 1.36412 -0.53083 0 1.42639 -0.608922 0 -0.537218 1.48045 0 -0.458517 1.42 0 -0.380468 1.3589 0 -0.30307 1.29715 0 -0.226325 1.23475 0 -0.150232 1.17169 0 -0.0747898 1.10798 0 8.50853e-12 1.04362 0 0.0741379 0.978611 0 0.147624 0.912947 0 0.220458 0.846632 0 0.292641 0.779665 0 0.364171 0.712045 0 0.43505 0.643774 0 0.505276 0.574851 0 0.574851 0.505276 0 0.643774 0.43505 0 0.712045 0.364171 0 0.779665 0.292641 0 0.846632 0.220458 0 0.912947 0.147624 0 0.978611 0.0741379 0 1.04362 1.26654e-12 0 1.10798 -0.0747898 0 1.17169 -0.150232 0 1.23475 -0.226325 0 1.29715 -0.30307 0 1.3589 -0.380468 0 1.42 -0.458517 0 1.48045 -0.537218 0 -0.464253 1.53325 0 -0.385031 1.47472 0 -0.306547 1.41544 0 -0.228802 1.35543 0 -0.151796 1.29467 0 -0.0755286 1.23318 0 8.35088e-12 1.17095 0 0.0747898 1.10798 0 0.148841 1.04427 0 0.222153 0.979828 0 0.294727 0.914642 0 0.366561 0.848718 0 0.437657 0.782055 0 0.508014 0.714653 0 0.577633 0.646512 0 0.646512 0.577633 0 0.714653 0.508014 0 0.782055 0.437657 0 0.848718 0.366561 0 0.914642 0.294727 0 0.979828 0.222153 0 1.04427 0.148841 0 1.10798 0.0747898 0 1.17095 1.19016e-12 0 1.23318 -0.0755286 0 1.29467 -0.151796 0 1.35543 -0.228802 0 1.41544 -0.306547 0 1.47472 -0.385031 0 1.53325 -0.464253 0 -0.390029 1.58479 0 -0.310371 1.52826 0 -0.23154 1.47089 0 -0.153534 1.4127 0 -0.0763543 1.35369 0 8.17146e-12 1.29385 0 0.0755286 1.23318 0 0.150232 1.17169 0 0.224109 1.10937 0 0.29716 1.04623 0 0.369386 0.982262 0 0.440786 0.917467 0 0.51136 0.851847 0 0.581109 0.785401 0 0.650032 0.718129 0 0.718129 0.650032 0 0.785401 0.581109 0 0.851847 0.51136 0 0.917467 0.440786 0 0.982262 0.369386 0 1.04623 0.29716 0 1.10937 0.224109 0 1.17169 0.150232 0 1.23318 0.0755286 0 1.29385 1.12088e-12 0 1.35369 -0.0763543 0 1.4127 -0.153534 0 1.47089 -0.23154 0 1.52826 -0.310371 0 1.58479 -0.390029 0 -0.314543 1.63507 0 -0.234539 1.58062 0 -0.155446 1.52526 0 -0.0772669 1.46898 0 7.96319e-12 1.41179 0 0.0763543 1.35369 0 0.151796 1.29467 0 0.226325 1.23475 0 0.299942 1.17391 0 0.372645 1.11215 0 0.444437 1.04949 0 0.515315 0.985912 0 0.585281 0.921422 0 0.654334 0.856019 0 0.722475 0.789703 0 0.789703 0.722475 0 0.856019 0.654334 0 0.921422 0.585281 0 0.985912 0.515315 0 1.04949 0.444437 0 1.11215 0.372645 0 1.17391 0.299942 0 1.23475 0.226325 0 1.29467 0.151796 0 1.35369 0.0763543 0 1.41179 1.05871e-12 0 1.46898 -0.0772669 0 1.52526 -0.155446 0 1.58062 -0.234539 0 1.63507 -0.314543 0 -0.237798 1.68409 0 -0.157532 1.63181 0 -0.0782665 1.57853 0 7.73159e-12 1.52426 0 0.0772669 1.46898 0 0.153534 1.4127 0 0.228802 1.35543 0 0.30307 1.29715 0 0.376339 1.23788 0 0.448609 1.1776 0 0.519878 1.11633 0 0.590148 1.05405 0 0.659419 0.990779 0 0.72769 0.926506 0 0.794962 0.861234 0 0.861234 0.794962 0 0.926506 0.72769 0 0.990779 0.659419 0 1.05405 0.590148 0 1.11633 0.519878 0 1.1776 0.448609 0 1.23788 0.376339 0 1.29715 0.30307 0 1.35543 0.228802 0 1.4127 0.153534 0 1.46898 0.0772669 0 1.52426 1.00719e-12 0 1.57853 -0.0782665 0 1.63181 -0.157532 0 1.68409 -0.237798 0 -0.159792 1.73185 0 -0.0793529 1.68183 0 7.4768e-12 1.63073 0 0.0782665 1.57853 0 0.155446 1.52526 0 0.23154 1.47089 0 0.306547 1.41544 0 0.380468 1.3589 0 0.453302 1.30128 0 0.52505 1.24257 0 0.595711 1.18277 0 0.665286 1.12189 0 0.733774 1.05992 0 0.801176 0.996863 0 0.867492 0.932721 0 0.932721 0.867492 0 0.996863 0.801176 0 1.05992 0.733774 0 1.12189 0.665286 0 1.18277 0.595711 0 1.24257 0.52505 0 1.30128 0.453302 0 1.3589 0.380468 0 1.41544 0.306547 0 1.47089 0.23154 0 1.52526 0.155446 0 1.57853 0.0782665 0 1.63073 9.64562e-13 0 1.68183 -0.0793529 0 1.73185 -0.159792 0 -0.0805263 1.77835 0 7.19425e-12 1.73068 0 0.0793529 1.68183 0 0.157532 1.63181 0 0.234539 1.58062 0 0.310371 1.52826 0 0.385031 1.47472 0 0.458517 1.42 0 0.53083 1.36412 0 0.601969 1.30706 0 0.671935 1.24883 0 0.740728 1.18942 0 0.808347 1.12884 0 0.874793 1.06709 0 0.940065 1.00416 0 1.00416 0.940065 0 1.06709 0.874793 0 1.12884 0.808347 0 1.18942 0.740728 0 1.24883 0.671935 0 1.30706 0.601969 0 1.36412 0.53083 0 1.42 0.458517 0 1.47472 0.385031 0 1.52826 0.310371 0 1.58062 0.234539 0 1.63181 0.157532 0 1.68183 0.0793529 0 1.73068 9.29035e-13 0 1.77835 -0.0805263 0 6.89404e-12 1.82359 0 0.0805263 1.77835 0 0.159792 1.73185 0 0.237798 1.68409 0 0.314543 1.63507 0 0.390029 1.58479 0 0.464253 1.53325 0 0.537218 1.48045 0 0.608922 1.42639 0 0.679366 1.37107 0 0.74855 1.31449 0 0.816473 1.25665 0 0.883137 1.19755 0 0.94854 1.13719 0 1.01268 1.07556 0 1.07556 1.01268 0 1.13719 0.94854 0 1.19755 0.883137 0 1.25665 0.816473 0 1.31449 0.74855 0 1.37107 0.679366 0 1.42639 0.608922 0 1.48045 0.537218 0 1.53325 0.464253 0 1.58479 0.390029 0 1.63507 0.314543 0 1.68409 0.237798 0 1.73185 0.159792 0 1.77835 0.0805263 0 1.82359 9.07718e-13 0 -1.04773 4.93916e-12 1.24595e-13 -1.02311 -0.0476358 1.67581e-13 -0.997665 -0.0944497 2.09534e-13 -0.971399 -0.140442 2.5191e-13 -0.944312 -0.185612 2.94355e-13 -0.916403 -0.22996 3.36918e-13 -0.887672 -0.273486 3.79287e-13 -0.858119 -0.31619 4.22426e-13 -0.827744 -0.358072 4.64587e-13 -0.796547 -0.399132 5.07094e-13 -0.764528 -0.439371 5.49602e-13 -0.731687 -0.478787 5.91874e-13 -0.698025 -0.517382 6.34603e-13 -0.66354 -0.555154 6.77083e-13 -0.628233 -0.592105 7.19591e-13 -0.592105 -0.628233 7.53809e-13 -0.555154 -0.66354 7.79932e-13 -0.517382 -0.698025 8.06639e-13 -0.478787 -0.731687 8.32875e-13 -0.439371 -0.764528 8.59035e-13 -0.399132 -0.796547 8.85333e-13 -0.358072 -0.827744 9.12034e-13 -0.31619 -0.858119 9.38194e-13 -0.273486 -0.887672 9.64381e-13 -0.22996 -0.916403 9.91013e-13 -0.185612 -0.944312 1.01691e-12 -0.140442 -0.971399 1.04378e-12 -0.0944497 -0.997665 1.06973e-12 -0.0476358 -1.02311 1.09565e-12 5.56177e-12 -1.04773 1.12205e-12 -1.02311 0.0476358 1.00073e-13 -0.996899 4.62113e-12 1.43692e-13 -0.969926 -0.0468706 1.87473e-13 -0.942187 -0.0929759 2.3142e-13 -0.913682 -0.138316 2.75033e-13 -0.884413 -0.182891 3.18969e-13 -0.854378 -0.2267 3.62621e-13 -0.823578 -0.269745 4.06397e-13 -0.792012 -0.312024 4.49979e-13 -0.759682 -0.353537 4.93804e-13 -0.726586 -0.394286 5.37698e-13 -0.692724 -0.434269 5.81426e-13 -0.658098 -0.473487 6.25015e-13 -0.622706 -0.51194 6.68937e-13 -0.586549 -0.549627 7.12693e-13 -0.549627 -0.586549 7.47628e-13 -0.51194 -0.622706 7.74116e-13 -0.473487 -0.658098 8.00292e-13 -0.434269 -0.692724 8.27164e-13 -0.394286 -0.726586 8.53218e-13 -0.353537 -0.759682 8.79723e-13 -0.312024 -0.792012 9.05978e-13 -0.269745 -0.823578 9.32622e-13 -0.2267 -0.854378 9.59446e-13 -0.182891 -0.884413 9.85187e-13 -0.138316 -0.913682 1.01221e-12 -0.0929759 -0.942187 1.03797e-12 -0.0468706 -0.969926 1.06477e-12 6.1996e-12 -0.996899 1.09068e-12 0.0476358 -1.02311 1.118e-12 -0.997665 0.0944497 7.56348e-14 -0.969926 0.0468706 1.21075e-13 -0.941478 4.32184e-12 1.65593e-13 -0.912322 -0.046162 2.10531e-13 -0.882457 -0.0916154 2.55434e-13 -0.851884 -0.13636 3.00257e-13 -0.820602 -0.180397 3.45496e-13 -0.788611 -0.223724 3.90701e-13 -0.755912 -0.266343 4.35628e-13 -0.722504 -0.308254 4.80722e-13 -0.688388 -0.349456 5.25725e-13 -0.653563 -0.389949 5.70743e-13 -0.61803 -0.429734 6.15843e-13 -0.581788 -0.46881 6.60736e-13 -0.544837 -0.507178 7.05948e-13 -0.507178 -0.544837 7.41694e-13 -0.46881 -0.581788 7.68083e-13 -0.429734 -0.61803 7.94607e-13 -0.389949 -0.653563 8.20988e-13 -0.349456 -0.688388 8.47845e-13 -0.308254 -0.722504 8.74459e-13 -0.266343 -0.755912 9.00616e-13 -0.223724 -0.788611 9.27244e-13 -0.180397 -0.820602 9.53969e-13 -0.13636 -0.851884 9.80694e-13 -0.0916154 -0.882457 1.00711e-12 -0.046162 -0.912322 1.03351e-12 6.80228e-12 -0.941478 1.06006e-12 0.0468706 -0.969926 1.08629e-12 0.0944497 -0.997665 1.11288e-12 -0.971399 0.140442 5.11131e-14 -0.942187 0.0929759 9.72943e-14 -0.912322 0.046162 1.43666e-13 -0.881805 4.03372e-12 1.8993e-13 -0.850636 -0.0455101 2.35841e-13 -0.818816 -0.0903683 2.82134e-13 -0.786344 -0.134575 3.28677e-13 -0.753219 -0.178129 3.75276e-13 -0.719443 -0.221032 4.21027e-13 -0.685015 -0.263282 4.67556e-13 -0.649935 -0.304881 5.13836e-13 -0.614203 -0.345828 5.59934e-13 -0.57782 -0.386123 6.06463e-13 -0.540784 -0.425766 6.52659e-13 -0.503097 -0.464757 6.98869e-13 -0.464757 -0.503097 7.35067e-13 -0.425766 -0.540784 7.61979e-13 -0.386123 -0.57782 7.88658e-13 -0.345828 -0.614203 8.15451e-13 -0.304881 -0.649935 8.41945e-13 -0.263282 -0.685015 8.68516e-13 -0.221032 -0.719443 8.95336e-13 -0.178129 -0.753219 9.21935e-13 -0.134575 -0.786344 9.48589e-13 -0.0903683 -0.818816 9.75312e-13 -0.0455101 -0.850636 1.00172e-12 7.36633e-12 -0.881805 1.02834e-12 0.046162 -0.912322 1.05497e-12 0.0929759 -0.942187 1.08179e-12 0.140442 -0.971399 1.10814e-12 -0.944312 0.185612 2.68135e-14 -0.913682 0.138316 7.40397e-14 -0.882457 0.0916154 1.21625e-13 -0.850636 0.0455101 1.69024e-13 -0.818221 3.76679e-12 2.16676e-13 -0.78521 -0.0449149 2.64328e-13 -0.751604 -0.0892346 3.12073e-13 -0.717403 -0.132959 3.59288e-13 -0.682606 -0.176088 4.0685e-13 -0.647214 -0.218623 4.54342e-13 -0.611227 -0.260561 5.01752e-13 -0.574645 -0.301905 5.49501e-13 -0.537468 -0.342654 5.97097e-13 -0.499696 -0.382807 6.44721e-13 -0.461328 -0.422365 6.91971e-13 -0.422365 -0.461328 7.29048e-13 -0.382807 -0.499696 7.55838e-13 -0.342654 -0.537468 7.82605e-13 -0.301905 -0.574645 8.09441e-13 -0.260561 -0.611227 8.3601e-13 -0.218623 -0.647214 8.62926e-13 -0.176088 -0.682606 8.89655e-13 -0.132959 -0.717403 9.16376e-13 -0.0892346 -0.751604 9.42987e-13 -0.0449149 -0.78521 9.69626e-13 7.89036e-12 -0.818221 9.96777e-13 0.0455101 -0.850636 1.0234e-12 0.0916154 -0.882457 1.04976e-12 0.138316 -0.913682 1.07687e-12 0.185612 -0.944312 1.10368e-12 -0.916403 0.22996 2.34742e-15 -0.884413 0.182891 5.07018e-14 -0.851884 0.13636 9.99148e-14 -0.818816 0.0903683 1.48076e-13 -0.78521 0.0449149 1.9709e-13 -0.751065 3.51214e-12 2.45935e-13 -0.716382 -0.0443764 2.9454e-13 -0.681161 -0.0882143 3.43703e-13 -0.6454 -0.131514 3.92305e-13 -0.609102 -0.174274 4.4133e-13 -0.572265 -0.216497 4.89994e-13 -0.534889 -0.258181 5.38907e-13 -0.496975 -0.299326 5.87606e-13 -0.458522 -0.339933 6.36534e-13 -0.419531 -0.380001 6.85337e-13 -0.380001 -0.419531 7.23088e-13 -0.339933 -0.458522 7.49967e-13 -0.299326 -0.496975 7.76781e-13 -0.258181 -0.534889 8.03681e-13 -0.216497 -0.572265 8.30533e-13 -0.174274 -0.609102 8.5726e-13 -0.131514 -0.6454 8.84153e-13 -0.0882143 -0.681161 9.11109e-13 -0.0443764 -0.716382 9.3794e-13 8.38107e-12 -0.751065 9.64688e-13 0.0449149 -0.78521 9.91644e-13 0.0903683 -0.818816 1.01827e-12 0.13636 -0.851884 1.0449e-12 0.182891 -0.884413 1.07215e-12 0.22996 -0.916403 1.09877e-12 -0.887672 0.273486 -2.27848e-14 -0.854378 0.2267 2.76172e-14 -0.820602 0.180397 7.75733e-14 -0.786344 0.134575 1.27919e-13 -0.751604 0.0892346 1.77522e-13 -0.716382 0.0443764 2.27788e-13 -0.680679 3.27272e-12 2.7771e-13 -0.644493 -0.0438946 3.28097e-13 -0.607826 -0.0873073 3.77822e-13 -0.570677 -0.130238 4.2806e-13 -0.533047 -0.172687 4.78104e-13 -0.494934 -0.214655 5.28217e-13 -0.45634 -0.25614 5.78219e-13 -0.417263 -0.297144 6.28339e-13 -0.377705 -0.337665 6.78244e-13 -0.337665 -0.377705 7.16885e-13 -0.297144 -0.417263 7.43973e-13 -0.25614 -0.45634 7.70839e-13 -0.214655 -0.494934 7.97869e-13 -0.172687 -0.533047 8.24702e-13 -0.130238 -0.570677 8.51705e-13 -0.0873073 -0.607826 8.78673e-13 -0.0438946 -0.644493 9.05731e-13 8.83216e-12 -0.680679 9.32672e-13 0.0443764 -0.716382 9.59612e-13 0.0892346 -0.751604 9.86483e-13 0.134575 -0.786344 1.01365e-12 0.180397 -0.820602 1.04063e-12 0.2267 -0.854378 1.06725e-12 0.273486 -0.887672 1.09429e-12 -0.858119 0.31619 -4.73065e-14 -0.823578 0.269745 4.09884e-15 -0.788611 0.223724 5.56152e-14 -0.753219 0.178129 1.06954e-13 -0.717403 0.132959 1.58238e-13 -0.681161 0.0882143 2.09502e-13 -0.644493 0.0438946 2.60739e-13 -0.607401 3.05067e-12 3.12231e-13 -0.569884 -0.0434694 3.63561e-13 -0.531941 -0.0865137 4.14936e-13 -0.493574 -0.129133 4.66172e-13 -0.454781 -0.171327 5.17603e-13 -0.415563 -0.213096 5.6886e-13 -0.37592 -0.254439 6.20159e-13 -0.335851 -0.295358 6.71464e-13 -0.295358 -0.335851 7.10736e-13 -0.254439 -0.37592 7.37872e-13 -0.213096 -0.415563 7.64966e-13 -0.171327 -0.454781 7.92026e-13 -0.129133 -0.493574 8.19052e-13 -0.0865137 -0.531941 8.4615e-13 -0.0434694 -0.569884 8.73227e-13 9.24205e-12 -0.607401 9.00346e-13 0.0438946 -0.644493 9.27528e-13 0.0882143 -0.681161 9.54369e-13 0.132959 -0.717403 9.81669e-13 0.178129 -0.753219 1.00894e-12 0.223724 -0.788611 1.03562e-12 0.269745 -0.823578 1.06289e-12 0.31619 -0.858119 1.08983e-12 -0.827744 0.358072 -7.15922e-14 -0.792012 0.312024 -1.92083e-14 -0.755912 0.266343 3.34948e-14 -0.719443 0.221032 8.63493e-14 -0.682606 0.176088 1.38644e-13 -0.6454 0.131514 1.91248e-13 -0.607826 0.0873073 2.43829e-13 -0.569884 0.0434694 2.96445e-13 -0.531573 2.84051e-12 3.4912e-13 -0.492893 -0.043101 4.01625e-13 -0.453845 -0.0858335 4.54352e-13 -0.414429 -0.128198 5.06913e-13 -0.374644 -0.170193 5.5957e-13 -0.334491 -0.21182 6.12026e-13 -0.293969 -0.253079 6.6458e-13 -0.253079 -0.293969 7.04554e-13 -0.21182 -0.334491 7.31871e-13 -0.170193 -0.374644 7.58972e-13 -0.128198 -0.414429 7.86138e-13 -0.0858335 -0.453845 8.13211e-13 -0.043101 -0.492893 8.40505e-13 9.61531e-12 -0.531573 8.6774e-13 0.0434694 -0.569884 8.94913e-13 0.0873073 -0.607826 9.22044e-13 0.131514 -0.6454 9.49224e-13 0.176088 -0.682606 9.7641e-13 0.221032 -0.719443 1.00347e-12 0.266343 -0.755912 1.03112e-12 0.312024 -0.792012 1.05782e-12 0.358072 -0.827744 1.085e-12 -0.796547 0.399132 -9.63081e-14 -0.759682 0.353537 -4.24898e-14 -0.722504 0.308254 1.16477e-14 -0.685015 0.263282 6.51325e-14 -0.647214 0.218623 1.19185e-13 -0.609102 0.174274 1.72992e-13 -0.570677 0.130238 2.2701e-13 -0.531941 0.0865137 2.80871e-13 -0.492893 0.043101 3.34745e-13 -0.453534 2.64295e-12 3.88605e-13 -0.413862 -0.0427892 4.42417e-13 -0.373879 -0.0852666 4.96291e-13 -0.333584 -0.127432 5.50204e-13 -0.292977 -0.169286 6.04026e-13 -0.252059 -0.210828 6.57946e-13 -0.210828 -0.252059 6.98467e-13 -0.169286 -0.292977 7.25792e-13 -0.127432 -0.333584 7.53057e-13 -0.0852666 -0.373879 7.80344e-13 -0.0427892 -0.413862 8.07702e-13 9.9486e-12 -0.453534 8.34905e-13 0.043101 -0.492893 8.62197e-13 0.0865137 -0.531941 8.89549e-13 0.130238 -0.570677 9.16761e-13 0.174274 -0.609102 9.44016e-13 0.218623 -0.647214 9.71367e-13 0.263282 -0.685015 9.98767e-13 0.308254 -0.722504 1.02584e-12 0.353537 -0.759682 1.05325e-12 0.399132 -0.796547 1.08065e-12 -0.764528 0.439371 -1.2058e-13 -0.726586 0.394286 -6.55748e-14 -0.688388 0.349456 -1.04466e-14 -0.649935 0.304881 4.4536e-14 -0.611227 0.260561 9.96503e-14 -0.572265 0.216497 1.54807e-13 -0.533047 0.172687 2.10016e-13 -0.493574 0.129133 2.65241e-13 -0.453845 0.0858335 3.20342e-13 -0.413862 0.0427892 3.75426e-13 -0.373624 2.46003e-12 4.3051e-13 -0.33313 -0.0425341 4.85667e-13 -0.292382 -0.0848131 5.40782e-13 -0.251378 -0.126837 5.95956e-13 -0.21012 -0.168606 6.51117e-13 -0.168606 -0.21012 6.92346e-13 -0.126837 -0.251378 7.19678e-13 -0.0848131 -0.292382 7.47158e-13 -0.0425341 -0.33313 7.74539e-13 1.02464e-11 -0.373624 8.01923e-13 0.0427892 -0.413862 8.29273e-13 0.0858335 -0.453845 8.56706e-13 0.129133 -0.493574 8.84226e-13 0.172687 -0.533047 9.11631e-13 0.216497 -0.572265 9.38856e-13 0.260561 -0.611227 9.66102e-13 0.304881 -0.649935 9.93674e-13 0.349456 -0.688388 1.02125e-12 0.394286 -0.726586 1.04855e-12 0.439371 -0.764528 1.07585e-12 -0.731687 0.478787 -1.45296e-13 -0.692724 0.434269 -8.88828e-14 -0.653563 0.389949 -3.26727e-14 -0.614203 0.345828 2.40036e-14 -0.574645 0.301905 8.03234e-14 -0.534889 0.258181 1.36489e-13 -0.494934 0.214655 1.93027e-13 -0.454781 0.171327 2.49505e-13 -0.414429 0.128198 3.0588e-13 -0.373879 0.0852666 3.62216e-13 -0.33313 0.0425341 4.1861e-13 -0.292184 2.28662e-12 4.75063e-13 -0.251038 -0.0423357 5.31402e-13 -0.209695 -0.084473 5.87828e-13 -0.168152 -0.126412 6.44198e-13 -0.126412 -0.168152 6.86174e-13 -0.084473 -0.209695 7.1367e-13 -0.0423357 -0.251038 7.41225e-13 1.05021e-11 -0.292184 7.68719e-13 0.0425341 -0.33313 7.96204e-13 0.0852666 -0.373879 8.23649e-13 0.128198 -0.414429 8.51215e-13 0.171327 -0.454781 8.78761e-13 0.214655 -0.494934 9.06196e-13 0.258181 -