<?xml version="1.0"?> 
<VTKFile type="StructuredGrid" version="0.1"> 
<StructuredGrid WholeExtent="0 29 0 29 0 29"> 
<Piece Extent="0 29 0 29 0 29"> 
<PointData>
<DataArray type="Float32" Name="hfield" format="ascii" NumberOfComponents="3"> 
-67.3065 3.97904e-12 -2.59206e-11 -65.4502 -2.78559 -2.6084e-11 -63.5608 -5.53799 -2.70717e-11 -61.6382 -8.2572 -2.75691e-11 -59.6824 -10.9432 -2.79101e-11 -57.6934 -13.596 -2.84786e-11 -55.6712 -16.2157 -2.89901e-11 -53.6158 -18.8021 -2.97291e-11 -51.5272 -21.3554 -3.0127e-11 -49.4055 -23.8754 -3.06954e-11 -47.2505 -26.3623 -3.10934e-11 -45.0624 -28.816 -3.17186e-11 -42.841 -31.2365 -3.21734e-11 -40.5865 -33.6238 -3.26281e-11 -38.2988 -35.9779 -3.31966e-11 -35.9779 -38.2988 -3.35802e-11 -33.6238 -40.5865 -3.36797e-11 -31.2365 -42.841 -3.3566e-11 -28.816 -45.0624 -3.34808e-11 -26.3623 -47.2505 -3.34239e-11 -23.8754 -49.4055 -3.35376e-11 -21.3554 -51.5272 -3.34239e-11 -18.8021 -53.6158 -3.35376e-11 -16.2157 -55.6712 -3.34239e-11 -13.596 -57.6934 -3.33102e-11 -10.9432 -59.6824 -3.31966e-11 -8.2572 -61.6382 -3.31966e-11 -5.53799 -63.5608 -3.36513e-11 -2.78559 -65.4502 -3.34239e-11 1.40972e-11 -67.3065 -3.34239e-11 -65.4502 2.78559 -2.27438e-11 -63.5299 2.85172e-12 -2.35373e-11 -61.5787 -2.75469 -2.4146e-11 -59.5965 -5.47848 -2.47405e-11 -57.5835 -8.17136 -2.53492e-11 -55.5396 -10.8333 -2.56453e-11 -53.4647 -13.4644 -2.62541e-11 -51.359 -16.0646 -2.69196e-11 -49.2223 -18.6339 -2.74999e-11 -47.0548 -21.1722 -2.79666e-11 -44.8564 -23.6797 -2.86037e-11 -42.627 -26.1563 -2.89566e-11 -40.3667 -28.602 -2.96506e-11 -38.0756 -31.0167 -3.01173e-11 -35.7535 -33.4006 -3.08681e-11 -33.4006 -35.7535 -3.10991e-11 -31.0167 -38.0756 -3.12296e-11 -28.602 -40.3667 -3.12109e-11 -26.1563 -42.627 -3.13343e-11 -23.6797 -44.8564 -3.14008e-11 -21.1722 -47.0548 -3.13536e-11 -18.6339 -49.2223 -3.13065e-11 -16.0646 -51.359 -3.15435e-11 -13.4644 -53.4647 -3.15532e-11 -10.8333 -55.5396 -3.16766e-11 -8.17136 -57.5835 -3.18e-11 -5.47848 -59.5965 -3.19233e-11 -2.75469 -61.5787 -3.1933e-11 1.15321e-11 -63.5299 -3.19427e-11 2.78559 -65.4502 -3.21798e-11 -63.5608 5.53799 -2.02491e-11 -61.5787 2.75469 -2.04576e-11 -59.5679 1.45928e-12 -2.11493e-11 -57.5286 -2.72608 -2.1912e-11 -55.4606 -5.42354 -2.21631e-11 -53.364 -8.09239 -2.28121e-11 -51.2388 -10.7326 -2.34043e-11 -49.085 -13.3442 -2.42239e-11 -46.9026 -15.9273 -2.47023e-11 -44.6915 -18.4817 -2.52945e-11 -42.4519 -21.0074 -2.60004e-11 -40.1836 -23.5046 -2.66494e-11 -37.8867 -25.9732 -2.70142e-11 -35.5613 -28.4131 -2.76632e-11 -33.2072 -30.8244 -2.81986e-11 -30.8244 -33.2072 -2.87886e-11 -28.4131 -35.5613 -2.87795e-11 -25.9732 -37.8867 -2.89694e-11 -23.5046 -40.1836 -2.90172e-11 -21.0074 -42.4519 -2.92071e-11 -18.4817 -44.6915 -2.95676e-11 -15.9273 -46.9026 -2.97575e-11 -13.3442 -49.085 -3.00042e-11 -10.7326 -51.2388 -3.01373e-11 -8.09239 -53.364 -3.0384e-11 -5.42354 -55.4606 -3.04034e-11 -2.72608 -57.5286 -3.03091e-11 9.83391e-12 -59.5679 -3.11243e-11 2.75469 -61.5787 -3.09163e-11 5.53799 -63.5608 -3.1163e-11 -61.6382 8.2572 -1.7186e-11 -59.5965 5.47848 -1.76906e-11 -57.5286 2.72608 -1.8451e-11 -55.4343 5.25802e-13 -1.88561e-11 -53.3137 -2.69975 -1.93749e-11 -51.1667 -5.37318 -2.04052e-11 -48.9934 -8.02028 -2.08103e-11 -46.7938 -10.6411 -2.16418e-11 -44.5679 -13.2355 -2.20753e-11 -42.3157 -15.8036 -2.26793e-11 -40.0371 -18.3455 -2.33402e-11 -37.7322 -20.8609 -2.38874e-11 -35.401 -23.3501 -2.45483e-11 -33.0435 -25.8129 -2.51524e-11 -30.6596 -28.2494 -2.57564e-11 -28.2494 -30.6596 -2.62364e-11 -25.8129 -33.0435 -2.64289e-11 -23.3501 -35.401 -2.66143e-11 -20.8609 -37.7322 -2.69276e-11 -18.3455 -40.0371 -2.7184e-11 -15.8036 -42.3157 -2.75541e-11 -13.2355 -44.5679 -2.78106e-11 -10.6411 -46.7938 -2.80101e-11 -8.02028 -48.9934 -2.82666e-11 -5.37318 -51.1667 -2.8523e-11 -2.69975 -53.3137 -2.88931e-11 8.19966e-12 -55.4343 -2.90359e-11 2.72608 -57.5286 -2.95197e-11 5.47848 -59.5965 -2.94351e-11 8.2572 -61.6382 -2.99189e-11 -59.6824 10.9432 -1.41229e-11 -57.5835 8.17136 -1.47175e-11 -55.4606 5.42354 -1.54329e-11 -53.3137 2.69975 -1.62407e-11 -51.1427 -5.71987e-13 -1.69703e-11 -48.9477 -2.67572 -1.74015e-11 -46.7286 -5.3274 -1.81027e-11 -44.4855 -7.95504 -1.85765e-11 -42.2184 -10.5587 -1.94766e-11 -39.9273 -13.1382 -2.0121e-11 -37.6121 -15.6938 -2.06801e-11 -35.2728 -18.2253 -2.1296e-11 -32.9096 -20.7327 -2.19688e-11 -30.5223 -23.2162 -2.25847e-11 -28.1109 -25.6756 -2.32575e-11 -25.6756 -28.1109 -2.3599e-11 -23.2162 -30.5223 -2.41351e-11 -20.7327 -32.9096 -2.44581e-11 -18.2253 -35.2728 -2.47811e-11 -15.6938 -37.6121 -2.5104e-11 -13.1382 -39.9273 -2.55407e-11 -10.5587 -42.2184 -2.58068e-11 -7.95504 -44.4855 -2.62434e-11 -5.3274 -46.7286 -2.65096e-11 -2.67572 -48.9477 -2.67757e-11 6.84963e-12 -51.1427 -2.71555e-11 2.69975 -53.3137 -2.75353e-11 5.42354 -55.4606 -2.78014e-11 8.17136 -57.5835 -2.82949e-11 10.9432 -59.6824 -2.84473e-11 -57.6934 13.596 -1.12872e-11 -55.5396 10.8333 -1.19505e-11 -53.364 8.09239 -1.28625e-11 -51.1667 5.37318 -1.31848e-11 -48.9477 2.67572 -1.38836e-11 -46.7069 -1.55609e-12 -1.45683e-11 -44.4443 -2.65397 -1.51676e-11 -42.16 -5.28619 -1.61081e-11 -39.854 -7.89667 -1.67075e-11 -37.5262 -10.4854 -1.74205e-11 -35.1767 -13.0524 -1.80199e-11 -32.8054 -15.5976 -1.87045e-11 -30.4124 -18.1211 -1.93892e-11 -27.9976 -20.6229 -2.00738e-11 -25.5611 -23.1029 -2.07016e-11 -23.1029 -25.5611 -2.12813e-11 -20.6229 -27.9976 -2.1685e-11 -18.1211 -30.4124 -2.21882e-11 -15.5976 -32.8054 -2.2663e-11 -13.0524 -35.1767 -2.31946e-11 -10.4854 -37.5262 -2.34704e-11 -7.89667 -39.854 -2.39736e-11 -5.28619 -42.16 -2.43062e-11 -2.65397 -44.4443 -2.47525e-11 6.01119e-12 -46.7069 -2.53694e-11 2.67572 -48.9477 -2.57589e-11 5.37318 -51.1667 -2.61484e-11 8.09239 -53.364 -2.64242e-11 10.8333 -55.5396 -2.71548e-11 13.596 -57.6934 -2.75442e-11 -55.6712 16.2157 -8.22405e-12 -53.4647 13.4644 -8.97031e-12 -51.2388 10.7326 -9.83735e-12 -48.9934 8.02028 -1.05126e-11 -46.7286 5.3274 -1.12517e-11 -44.4443 2.65397 -1.18345e-11 -42.1406 -1.73372e-12 -1.26589e-11 -39.8174 -2.63451 -1.33555e-11 -37.4747 -5.24957 -1.39383e-11 -35.1126 -7.84517 -1.46632e-11 -32.731 -10.4213 -1.5445e-11 -30.33 -12.978 -1.61699e-11 -27.9095 -15.5152 -1.68096e-11 -25.4696 -18.033 -1.7563e-11 -23.0102 -20.5313 -1.82595e-11 -20.5313 -23.0102 -1.88535e-11 -18.033 -25.4696 -1.9377e-11 -15.5152 -27.9095 -1.99752e-11 -12.978 -30.33 -2.04596e-11 -10.4213 -32.731 -2.09441e-11 -7.84517 -35.1126 -2.15138e-11 -5.24957 -37.4747 -2.20266e-11 -2.63451 -39.8174 -2.25395e-11 5.58487e-12 -42.1406 -2.31661e-11 2.65397 -44.4443 -2.36221e-11 5.3274 -46.7286 -2.42486e-11 8.02028 -48.9934 -2.47615e-11 10.7326 -51.2388 -2.52744e-11 13.4644 -53.4647 -2.55599e-11 16.2157 -55.6712 -2.64138e-11 -53.6158 18.8021 -5.38832e-12 -51.359 16.0646 -6.10026e-12 -49.085 13.3442 -6.91878e-12 -46.7938 10.6411 -7.59875e-12 -44.4855 7.95504 -8.25029e-12 -42.16 5.28619 -9.07237e-12 -39.8174 2.63451 -9.78076e-12 -37.4575 -1.98952e-12 -1.06313e-11 -35.0806 -2.61735 -1.13396e-11 -32.6864 -5.21752 -1.2048e-11 -30.2751 -7.80053 -1.27564e-11 -27.8466 -10.3664 -1.34648e-11 -25.4009 -12.915 -1.423e-11 -22.9381 -15.4466 -1.49384e-11 -20.4581 -17.9609 -1.57037e-11 -17.9609 -20.4581 -1.64222e-11 -15.4466 -22.9381 -1.70264e-11 -12.915 -25.4009 -1.76485e-11 -10.3664 -27.8466 -1.82563e-11 -7.80053 -30.2751 -1.88925e-11 -5.21752 -32.6864 -1.9614e-11 -2.61735 -35.0806 -2.00797e-11 4.94538e-12 -37.4575 -2.0716e-11 2.63451 -39.8174 -2.14659e-11 5.28619 -42.16 -2.21021e-11 7.95504 -44.4855 -2.27384e-11 10.6411 -46.7938 -2.32609e-11 13.3442 -49.085 -2.37835e-11 16.0646 -51.359 -2.46471e-11 18.8021 -53.6158 -2.52833e-11 -51.5272 21.3554 -2.21152e-12 -49.2223 18.6339 -3.22666e-12 -46.9026 15.9273 -4.17784e-12 -44.5679 13.2355 -4.84837e-12 -42.2184 10.5587 -5.47626e-12 -39.854 7.89667 -6.40968e-12 -37.4747 5.24957 -7.12994e-12 -35.0806 2.61735 -7.82178e-12 -32.6715 -2.45848e-12 -8.65573e-12 -30.2476 -2.60247 -9.43284e-12 -27.8088 -5.19005 -1.01531e-11 -25.3551 -7.76276 -1.09302e-11 -22.8866 -10.3206 -1.17073e-11 -20.4031 -12.8635 -1.23991e-11 -17.9048 -15.3916 -1.32047e-11 -15.3916 -17.9048 -1.39908e-11 -12.8635 -20.4031 -1.47184e-11 -10.3206 -22.8866 -1.53644e-11 -7.76276 -25.3551 -1.59961e-11 -5.19005 -27.8088 -1.67841e-11 -2.60247 -30.2476 -1.75437e-11 4.78906e-12 -32.6715 -1.82465e-11 2.61735 -35.0806 -1.90061e-11 5.24957 -37.4747 -1.97089e-11 7.89667 -39.854 -2.04116e-11 10.5587 -42.2184 -2.10576e-11 13.2355 -44.5679 -2.17035e-11 15.9273 -46.9026 -2.25199e-11 18.6339 -49.2223 -2.35069e-11 21.3554 -51.5272 -2.41529e-11 -49.4055 23.8754 5.1053e-13 -47.0548 21.1722 -3.95687e-13 -44.6915 18.4817 -1.3019e-12 -42.3157 15.8036 -2.00562e-12 -39.9273 13.1382 -2.75907e-12 -37.5262 10.4854 -3.51962e-12 -35.1126 7.84517 -4.36545e-12 -32.6864 5.21752 -5.126e-12 -30.2476 2.60247 -5.9434e-12 -27.7962 -2.6148e-12 -6.7608e-12 -25.3322 -2.58988 -7.52136e-12 -22.8557 -5.16716 -8.31034e-12 -20.3665 -7.73186 -9.15616e-12 -17.8648 -10.284 -9.91671e-12 -15.3504 -12.8235 -1.07057e-11 -12.8235 -15.3504 -1.15275e-11 -10.284 -17.8648 -1.2311e-11 -7.73186 -20.3665 -1.31087e-11 -5.16716 -22.8557 -1.39064e-11 -2.58988 -25.3322 -1.47041e-11 4.67537e-12 -27.7962 -1.55303e-11 2.60247 -30.2476 -1.63564e-11 5.21752 -32.6864 -1.71826e-11 7.84517 -35.1126 -1.79519e-11 10.4854 -37.5262 -1.88348e-11 13.1382 -39.9273 -1.95473e-11 15.8036 -42.3157 -2.03166e-11 18.4817 -44.6915 -2.11996e-11 21.1722 -47.0548 -2.20826e-11 23.8754 -49.4055 -2.2795e-11 -47.2505 26.3623 3.34627e-12 -44.8564 23.6797 2.5241e-12 -42.4519 21.0074 1.74812e-12 -40.0371 18.3455 9.79242e-13 -37.6121 15.6938 1.14442e-13 -35.1767 13.0524 -7.71674e-13 -32.731 10.4213 -1.60095e-12 -30.2751 7.80053 -2.41601e-12 -27.8088 5.19005 -3.17423e-12 -25.3322 2.58988 -4.01771e-12 -22.8454 -2.44427e-12 -4.91804e-12 -20.3482 -2.57958 -5.71889e-12 -17.8407 -5.14885 -6.54816e-12 -15.3229 -7.70783 -7.37743e-12 -12.7949 -10.2565 -8.17828e-12 -10.2565 -12.7949 -9.02505e-12 -7.70783 -15.3229 -9.97456e-12 -5.14885 -17.8407 -1.08388e-11 -2.57958 -20.3482 -1.17457e-11 4.46221e-12 -22.8454 -1.2681e-11 2.58988 -25.3322 -1.35452e-11 5.19005 -27.8088 -1.44663e-11 7.80053 -30.2751 -1.53022e-11 10.4213 -32.731 -1.61948e-11 13.0524 -35.1767 -1.72012e-11 15.6938 -37.6121 -1.80939e-11 18.3455 -40.0371 -1.90434e-11 21.0074 -42.4519 -1.99361e-11 23.6797 -44.8564 -2.08287e-11 26.3623 -47.2505 -2.16077e-11 -45.0624 28.816 6.29569e-12 -42.627 26.1563 5.4581e-12 -40.1836 23.5046 4.69867e-12 -37.7322 20.8609 3.65857e-12 -35.2728 18.2253 2.86716e-12 -32.8054 15.5976 2.03312e-12 -30.33 12.978 1.20619e-12 -27.8466 10.3664 2.93986e-13 -25.3551 7.76276 -4.76106e-13 -22.8557 5.16716 -1.38831e-12 -20.3482 2.57958 -2.22945e-12 -17.8327 -2.27374e-12 -3.12744e-12 -15.3092 -2.57156 -3.96859e-12 -12.7777 -5.13512 -4.80973e-12 -10.2382 -7.69066 -5.65088e-12 -7.69066 -10.2382 -6.59368e-12 -5.13512 -12.7777 -7.63104e-12 -2.57156 -15.3092 -8.60446e-12 4.67537e-12 -17.8327 -9.57076e-12 2.57958 -20.3482 -1.053e-11 5.16716 -22.8557 -1.15034e-11 7.76276 -25.3551 -1.25763e-11 10.3664 -27.8466 -1.35639e-11 12.978 -30.33 -1.45515e-11 15.5976 -32.8054 -1.55391e-11 18.2253 -35.2728 -1.64983e-11 20.8609 -37.7322 -1.74291e-11 23.5046 -40.1836 -1.85589e-11 26.1563 -42.627 -1.95181e-11 28.816 -45.0624 -2.04204e-11 -42.841 31.2365 9.15985e-12 -40.3667 28.602 8.21535e-12 -37.8867 25.9732 7.4094e-12 -35.401 23.3501 6.62922e-12 -32.9096 20.7327 5.72646e-12 -30.4124 18.1211 4.78107e-12 -27.9095 15.5152 3.90674e-12 -25.4009 12.915 2.98977e-12 -22.8866 10.3206 2.15807e-12 -20.3665 7.73186 1.31215e-12 -17.8407 5.14885 3.73869e-13 -15.3092 2.57156 -5.07571e-13 -12.772 -2.04636e-12 -1.40322e-12 -10.229 -2.56584 -2.27045e-12 -7.68036 -5.12596 -3.18031e-12 -5.12596 -7.68036 -4.15166e-12 -2.56584 -10.229 -5.2449e-12 4.73221e-12 -12.772 -6.30616e-12 2.57156 -15.3092 -7.39584e-12 5.14885 -17.8407 -8.49262e-12 7.73186 -20.3665 -9.58941e-12 10.3206 -22.8866 -1.07146e-11 12.915 -25.4009 -1.16835e-11 15.5152 -27.9095 -1.28798e-11 18.1211 -30.4124 -1.38771e-11 20.7327 -32.9096 -1.49028e-11 23.3501 -35.401 -1.61275e-11 25.9732 -37.8867 -1.71248e-11 28.602 -40.3667 -1.82358e-11 31.2365 -42.841 -1.929e-11 -40.5865 33.6238 1.19956e-11 -38.0756 31.0167 1.09984e-11 -35.5613 28.4131 1.03457e-11 -33.0435 25.8129 9.43111e-12 -30.5223 23.2162 8.44365e-12 -27.9976 20.6229 7.60718e-12 -25.4696 18.033 6.62505e-12 -22.9381 15.4466 5.75661e-12 -20.4031 12.8635 4.77092e-12 -17.8648 10.284 3.93445e-12 -15.3229 7.70783 2.99851e-12 -12.7777 5.13512 2.06256e-12 -10.229 2.56584 1.14793e-12 -7.67692 -1.59162e-12 2.54618e-13 -5.12138 -2.56241 -6.52906e-13 -2.56241 -5.12138 -1.6981e-12 4.61142e-12 -7.67692 -2.88717e-12 2.56584 -10.229 -4.0647e-12 5.13512 -12.7777 -5.2067e-12 7.70783 -15.3229 -6.43396e-12 10.284 -17.8648 -7.57596e-12 12.8635 -20.4031 -8.68243e-12 15.4466 -22.9381 -1.00021e-11 18.033 -25.4696 -1.1137e-11 20.6229 -27.9976 -1.23571e-11 23.2162 -30.5223 -1.3421e-11 25.8129 -33.0435 -1.46695e-11 28.4131 -35.5613 -1.58044e-11 31.0167 -38.0756 -1.6982e-11 33.6238 -40.5865 -1.81026e-11 -38.2988 35.9779 1.50445e-11 -35.7535 33.4006 1.40356e-11 -33.2072 30.8244 1.3112e-11 -30.6596 28.2494 1.22064e-11 -28.1109 25.6756 1.11919e-11 -25.5611 23.1029 1.02885e-11 -23.0102 20.5313 9.43751e-12 -20.4581 17.9609 8.46838e-12 -17.9048 15.3916 7.50279e-12 -15.3504 12.8235 6.57274e-12 -12.7949 10.2565 5.63913e-12 -10.2382 7.69066 4.65046e-12 -7.68036 5.12596 3.72395e-12 -5.12138 2.56241 2.78679e-12 -2.56126 -1.17489e-12 1.85318e-12 4.4782e-12 -2.56126 7.4348e-13 2.56241 -5.12138 -5.12567e-13 5.12596 -7.68036 -1.76639e-12 7.69066 -10.2382 -3.04598e-12 10.2565 -12.7949 -4.29359e-12 12.8235 -15.3504 -5.58738e-12 15.3916 -17.9048 -6.91315e-12 17.9609 -20.4581 -8.24247e-12 20.5313 -23.0102 -9.22718e-12 23.1029 -25.5611 -1.05601e-11 25.6756 -28.1109 -1.18112e-11 28.2494 -30.6596 -1.32045e-11 30.8244 -33.2072 -1.43562e-11 33.4006 -35.7535 -1.57992e-11 35.9779 -38.2988 -1.70077e-11 -35.9779 38.2988 1.77067e-11 -33.4006 35.7535 1.66329e-11 -30.8244 33.2072 1.59495e-11 -28.2494 30.6596 1.4694e-11 -25.6756 28.1109 1.37401e-11 -23.1029 25.5611 1.28857e-11 -20.5313 23.0102 1.19087e-11 -17.9609 20.4581 1.09477e-11 -15.3916 17.9048 1.00062e-11 -12.8235 15.3504 9.0683e-12 -10.2565 12.7949 8.11085e-12 -7.69066 10.2382 7.1374e-12 -5.12596 7.68036 6.1533e-12 -2.56241 5.12138 5.19762e-12 4.30767e-12 2.56126 4.24194e-12 2.56126 -6.57252e-13 3.11973e-12 5.12138 -2.56241 1.81632e-12 7.68036 -5.12596 5.45342e-13 10.2382 -7.69066 -7.40741e-13 12.7949 -10.2565 -2.06413e-12 15.3504 -12.8235 -3.37863e-12 17.9048 -15.3916 -4.68248e-12 20.4581 -17.9609 -5.97566e-12 23.0102 -20.5313 -7.1978e-12 25.5611 -23.1029 -8.55493e-12 28.1109 -25.6756 -9.79128e-12 30.6596 -28.2494 -1.11342e-11 33.2072 -30.8244 -1.24771e-11 35.7535 -33.4006 -1.37135e-11 38.2988 -35.9779 -1.50635e-11 -33.6238 40.5865 2.00941e-11 -31.0167 38.0756 1.91847e-11 -28.4131 35.5613 1.82006e-11 -25.8129 33.0435 1.70939e-11 -23.2162 30.5223 1.61577e-11 -20.6229 27.9976 1.51559e-11 -18.033 25.4696 1.42713e-11 -15.4466 22.9381 1.32907e-11 -12.8635 20.4031 1.23919e-11 -10.284 17.8648 1.13332e-11 -7.70783 15.3229 1.0381e-11 -5.13512 12.7777 9.40759e-12 -2.56584 10.229 8.47677e-12 4.47642e-12 7.67692 7.49623e-12 2.56241 5.12138 6.51568e-12 5.12138 2.56241 5.41167e-12 7.67692 -5.7554e-13 4.1549e-12 10.229 -2.56584 2.92033e-12 12.7777 -5.13512 1.63425e-12 15.3229 -7.70783 4.12115e-13 17.8648 -10.284 -8.81073e-13 20.4031 -12.8635 -2.18847e-12 22.9381 -15.4466 -3.35376e-12 25.4696 -18.033 -4.51905e-12 27.9976 -20.6229 -5.91172e-12 30.5223 -23.2162 -7.16227e-12 33.0435 -25.8129 -8.3844e-12 35.5613 -28.4131 -9.60654e-12 38.0756 -31.0167 -1.09139e-11 40.5865 -33.6238 -1.22498e-11 -31.2365 42.841 2.23963e-11 -28.602 40.3667 2.14486e-11 -25.9732 37.8867 2.05045e-11 -23.3501 35.401 1.93303e-11 -20.7327 32.9096 1.84528e-11 -18.1211 30.4124 1.75007e-11 -15.5152 27.9095 1.65912e-11 -12.915 25.4009 1.56106e-11 -10.3206 22.8866 1.45874e-11 -7.73186 20.3665 1.36282e-11 -5.14885 17.8407 1.26619e-11 -2.57156 15.3092 1.17097e-11 4.73221e-12 12.772 1.07292e-11 2.56584 10.229 9.77707e-12 5.12596 7.68036 8.78231e-12 7.68036 5.12596 7.69695e-12 10.229 2.56584 6.46949e-12 12.772 -6.11067e-13 5.25802e-12 15.3092 -2.57156 4.04299e-12 17.8407 -5.14885 2.82796e-12 20.3665 -7.73186 1.60583e-12 22.8866 -10.3206 4.12115e-13 25.4009 -12.915 -8.52651e-13 27.9095 -15.5152 -2.13163e-12 30.4124 -18.1211 -3.29692e-12 32.9096 -20.7327 -4.43379e-12 35.401 -23.3501 -5.59908e-12 37.8867 -25.9732 -6.90648e-12 40.3667 -28.602 -8.18545e-12 42.841 -31.2365 -9.40759e-12 -28.816 45.0624 2.47269e-11 -26.1563 42.627 2.38742e-11 -23.5046 40.1836 2.27445e-11 -20.8609 37.7322 2.1867e-11 -18.2253 35.2728 2.08544e-11 -15.5976 32.8054 1.98881e-11 -12.978 30.33 1.88365e-11 -10.3664 27.8466 1.79057e-11 -7.76276 25.3551 1.68683e-11 -5.16716 22.8557 1.59588e-11 -2.57958 20.3482 1.49498e-11 4.94538e-12 17.8327 1.39977e-11 2.57156 15.3092 1.30314e-11 5.13512 12.7777 1.20224e-11 7.69066 10.2382 1.10845e-11 10.2382 7.69066 9.98668e-12 12.7777 5.13512 8.87468e-12 15.3092 2.57156 7.64544e-12 17.8327 -5.96856e-13 6.45173e-12 20.3482 -2.57958 5.24381e-12 22.8557 -5.16716 4.09273e-12 25.3551 -7.76276 2.92744e-12 27.8466 -10.3664 1.7053e-12 30.33 -12.978 5.11591e-13 32.8054 -15.5976 -5.68434e-13 35.2728 -18.2253 -1.84741e-12 37.7322 -20.8609 -3.0127e-12 40.1836 -23.5046 -4.03588e-12 42.627 -26.1563 -5.40012e-12 45.0624 -28.816 -6.48015e-12 -26.3623 47.2505 2.70006e-11 -23.6797 44.8564 2.59988e-11 -21.0074 42.4519 2.51745e-11 -18.3455 40.0371 2.41798e-11 -15.6938 37.6121 2.31992e-11 -13.0524 35.1767 2.21974e-11 -10.4213 32.731 2.11742e-11 -7.80053 30.2751 2.02363e-11 -5.19005 27.8088 1.92415e-11 -2.58988 25.3322 1.82467e-11 5.31486e-12 22.8454 1.72804e-11 2.57958 20.3482 1.63141e-11 5.14885 17.8407 1.53193e-11 7.70783 15.3229 1.43814e-11 10.2565 12.7949 1.33298e-11 12.7949 10.2565 1.22995e-11 15.3229 7.70783 1.11413e-11 17.8407 5.14885 9.99023e-12 20.3482 2.57958 8.85336e-12 22.8454 -9.37916e-13 7.75913e-12 25.3322 -2.58988 6.59384e-12 27.8088 -5.19005 5.40012e-12 30.2751 -7.80053 4.26326e-12 32.731 -10.4213 3.06954e-12 35.1767 -13.0524 2.10321e-12 37.6121 -15.6938 8.52651e-13 40.0371 -18.3455 -3.41061e-13 42.4519 -21.0074 -1.36424e-12 44.8564 -23.6797 -2.55795e-12 47.2505 -26.3623 -3.63798e-12 -23.8754 49.4055 2.92744e-11 -21.1722 47.0548 2.84466e-11 -18.4817 44.6915 2.75051e-11 -15.8036 42.3157 2.65814e-11 -13.1382 39.9273 2.54374e-11 -10.4854 37.5262 2.45421e-11 -7.84517 35.1126 2.35048e-11 -5.21752 32.6864 2.25668e-11 -2.60247 30.2476 2.15721e-11 6.01119e-12 27.7962 2.05205e-11 2.58988 25.3322 1.95826e-11 5.16716 22.8557 1.86162e-11 7.73186 20.3665 1.76499e-11 10.284 17.8648 1.65983e-11 12.8235 15.3504 1.56888e-11 15.3504 12.8235 1.4623e-11 17.8648 10.284 1.35287e-11 20.3665 7.73186 1.23777e-11 22.8557 5.16716 1.12834e-11 25.3322 2.58988 1.01466e-11 27.7962 -1.02318e-12 9.06653e-12 30.2476 -2.60247 7.92966e-12 32.6864 -5.21752 6.87805e-12 35.1126 -7.84517 5.68434e-12 37.5262 -10.4854 4.66116e-12 39.9273 -13.1382 3.52429e-12 42.3157 -15.8036 2.27374e-12 44.6915 -18.4817 1.25056e-12 47.0548 -21.1722 2.27374e-13 49.4055 -23.8754 -9.09495e-13 -21.3554 51.5272 3.17186e-11 -18.6339 49.2223 3.08091e-11 -15.9273 46.9026 2.97931e-11 -13.2355 44.5679 2.88338e-11 -10.5587 42.2184 2.76685e-11 -7.89667 39.854 2.68301e-11 -5.24957 37.4747 2.58069e-11 -2.61735 35.0806 2.47837e-11 6.12488e-12 32.6715 2.38742e-11 2.60247 30.2476 2.29079e-11 5.19005 27.8088 2.18279e-11 7.76276 25.3551 2.09184e-11 10.3206 22.8866 1.9952e-11 12.8635 20.4031 1.88152e-11 15.3916 17.9048 1.79057e-11 17.9048 15.3916 1.68896e-11 20.4031 12.8635 1.58877e-11 22.8866 10.3206 1.47082e-11 25.3551 7.76276 1.36424e-11 27.8088 5.19005 1.25908e-11 30.2476 2.60247 1.15676e-11 32.6715 -1.36424e-12 1.0516e-11 35.0806 -2.61735 9.43601e-12 37.4747 -5.24957 8.29914e-12 39.854 -7.89667 7.27596e-12 42.2184 -10.5587 6.13909e-12 44.5679 -13.2355 5.05906e-12 46.9026 -15.9273 4.09273e-12 49.2223 -18.6339 2.95586e-12 51.5272 -21.3554 2.04636e-12 -18.8021 53.6158 3.42197e-11 -16.0646 51.359 3.29976e-11 -13.3442 49.085 3.23368e-11 -10.6411 46.7938 3.10507e-11 -7.95504 44.4855 3.01412e-11 -5.28619 42.16 2.91465e-11 -2.63451 39.8174 2.81375e-11 6.79279e-12 37.4575 2.71996e-11 2.61735 35.0806 2.61764e-11 5.21752 32.6864 2.51532e-11 7.80053 30.2751 2.413e-11 10.3664 27.8466 2.31068e-11 12.915 25.4009 2.21689e-11 15.4466 22.9381 2.12026e-11 17.9609 20.4581 2.01794e-11 20.4581 17.9609 1.91704e-11 22.9381 15.4466 1.80904e-11 25.4009 12.915 1.71099e-11 27.8466 10.3664 1.60298e-11 30.2751 7.80053 1.50067e-11 32.6864 5.21752 1.40403e-11 35.0806 2.61735 1.29603e-11 37.4575 -1.53477e-12 1.19371e-11 39.8174 -2.63451 1.09708e-11 42.16 -5.28619 9.9476e-12 44.4855 -7.95504 8.98126e-12 46.7938 -10.6411 7.84439e-12 49.085 -13.3442 6.59384e-12 51.359 -16.0646 5.79803e-12 53.6158 -18.8021 4.66116e-12 -16.2157 55.6712 3.66072e-11 -13.4644 53.4647 3.52856e-11 -10.7326 51.2388 3.4639e-11 -8.02028 48.9934 3.3296e-11 -5.3274 46.7286 3.23723e-11 -2.65397 44.4443 3.15339e-11 7.37543e-12 42.1406 3.04681e-11 2.63451 39.8174 2.94733e-11 5.24957 37.4747 2.8507e-11 7.84517 35.1126 2.75406e-11 10.4213 32.731 2.64322e-11 12.978 30.33 2.55227e-11 15.5152 27.9095 2.44427e-11 18.033 25.4696 2.35332e-11 20.5313 23.0102 2.251e-11 23.0102 20.5313 2.14762e-11 25.4696 18.033 2.04778e-11 27.9095 15.5152 1.95541e-11 30.33 12.978 1.85594e-11 32.731 10.4213 1.75078e-11 35.1126 7.84517 1.65414e-11 37.4747 5.24957 1.55183e-11 39.8174 2.63451 1.45519e-11 42.1406 -1.64846e-12 1.34719e-11 44.4443 -2.65397 1.26192e-11 46.7286 -5.3274 1.14824e-11 48.9934 -8.02028 1.04592e-11 51.2388 -10.7326 9.32232e-12 53.4647 -13.4644 8.52651e-12 55.6712 -16.2157 7.61702e-12 -13.596 57.6934 3.86535e-11 -10.8333 55.5396 3.78044e-11 -8.09239 53.364 3.67137e-11 -5.37318 51.1667 3.58682e-11 -2.67572 48.9477 3.45892e-11 8.18545e-12 46.7069 3.39071e-11 2.65397 44.4443 3.27134e-11 5.28619 42.16 3.18607e-11 7.89667 39.854 3.07239e-11 10.4854 37.5262 2.98428e-11 13.0524 35.1767 2.87628e-11 15.5976 32.8054 2.77964e-11 18.1211 30.4124 2.68301e-11 20.6229 27.9976 2.58069e-11 23.1029 25.5611 2.47837e-11 25.5611 23.1029 2.37321e-11 27.9976 20.6229 2.27516e-11 30.4124 18.1211 2.18279e-11 32.8054 15.5976 2.09184e-11 35.1767 13.0524 1.9952e-11 37.5262 10.4854 1.89857e-11 39.854 7.89667 1.80194e-11 42.16 5.28619 1.71099e-11 44.4443 2.65397 1.62572e-11 46.7069 -1.98952e-12 1.5234e-11 48.9477 -2.67572 1.42109e-11 51.1667 -5.37318 1.33014e-11 53.364 -8.09239 1.20508e-11 55.5396 -10.8333 1.13687e-11 57.6934 -13.596 1.04592e-11 -10.9432 59.6824 4.10409e-11 -8.17136 57.5835 4.00995e-11 -5.42354 55.4606 3.92575e-11 -2.69975 53.3137 3.79714e-11 8.56915e-12 51.1427 3.69482e-11 2.67572 48.9477 3.60671e-11 5.3274 46.7286 3.52145e-11 7.95504 44.4855 3.40776e-11 10.5587 42.2184 3.3026e-11 13.1382 39.9273 3.20597e-11 15.6938 37.6121 3.10365e-11 18.2253 35.2728 3.00702e-11 20.7327 32.9096 2.89901e-11 23.2162 30.5223 2.80238e-11 25.6756 28.1109 2.69438e-11 28.1109 25.6756 2.60485e-11 30.5223 23.2162 2.51106e-11 32.9096 20.7327 2.42153e-11 35.2728 18.2253 2.33626e-11 37.6121 15.6938 2.23395e-11 39.9273 13.1382 2.143e-11 42.2184 10.5587 2.05773e-11 44.4855 7.95504 1.96678e-11 46.7286 5.3274 1.86446e-11 48.9477 2.67572 1.77351e-11 51.1427 -1.93268e-12 1.69393e-11 53.3137 -2.69975 1.59162e-11 55.4606 -5.42354 1.50067e-11 57.5835 -8.17136 1.38698e-11 59.6824 -10.9432 1.31877e-11 -8.2572 61.6382 4.35421e-11 -5.47848 59.5965 4.24905e-11 -2.72608 57.5286 4.12257e-11 9.70601e-12 55.4343 4.04157e-11 2.69975 53.3137 3.92788e-11 5.37318 51.1667 3.85114e-11 8.02028 48.9934 3.73461e-11 10.6411 46.7938 3.65787e-11 13.2355 44.5679 3.54134e-11 15.8036 42.3157 3.43334e-11 18.3455 40.0371 3.34239e-11 20.8609 37.7322 3.22871e-11 23.3501 35.401 3.13776e-11 25.8129 33.0435 3.03544e-11 28.2494 30.6596 2.92175e-11 30.6596 28.2494 2.84075e-11 33.0435 25.8129 2.74412e-11 35.401 23.3501 2.64606e-11 37.7322 20.8609 2.58638e-11 40.0371 18.3455 2.48406e-11 42.3157 15.8036 2.39879e-11 44.5679 13.2355 2.31353e-11 46.7938 10.6411 2.21689e-11 48.9934 8.02028 2.12594e-11 51.1667 5.37318 2.03499e-11 53.3137 2.69975 1.95541e-11 55.4343 -2.27374e-12 1.86446e-11 57.5286 -2.72608 1.79625e-11 59.5965 -5.47848 1.68257e-11 61.6382 -8.2572 1.59162e-11 -5.53799 63.5608 4.59295e-11 -2.75469 61.5787 4.50129e-11 9.73444e-12 59.5679 4.39968e-11 2.72608 57.5286 4.28457e-11 5.42354 55.4606 4.16378e-11 8.09239 53.364 4.04725e-11 10.7326 51.2388 3.9762e-11 13.3442 49.085 3.87104e-11 15.9273 46.9026 3.75167e-11 18.4817 44.6915 3.67208e-11 21.0074 42.4519 3.56977e-11 23.5046 40.1836 3.47313e-11 25.9732 37.8867 3.35945e-11 28.4131 35.5613 3.25713e-11 30.8244 33.2072 3.14913e-11 33.2072 30.8244 3.07736e-11 35.5613 28.4131 2.98996e-11 37.8867 25.9732 2.90754e-11 40.1836 23.5046 2.80238e-11 42.4519 21.0074 2.7228e-11 44.6915 18.4817 2.6489e-11 46.9026 15.9273 2.56932e-11 49.085 13.3442 2.47837e-11 51.2388 10.7326 2.38742e-11 53.364 8.09239 2.31921e-11 55.4606 5.42354 2.23963e-11 57.5286 2.72608 2.10321e-11 59.5679 -1.7053e-12 2.0691e-11 61.5787 -2.75469 1.97815e-11 63.5608 -5.53799 1.8872e-11 -2.78559 65.4502 4.82032e-11 1.09246e-11 63.5299 4.74145e-11 2.75469 61.5787 4.64127e-11 5.47848 59.5965 4.50484e-11 8.17136 57.5835 4.39968e-11 10.8333 55.5396 4.31442e-11 13.4644 53.4647 4.17799e-11 16.0646 51.359 4.10978e-11 18.6339 49.2223 4.02451e-11 21.1722 47.0548 3.89377e-11 23.6797 44.8564 3.79146e-11 26.1563 42.627 3.68345e-11 28.602 40.3667 3.5925e-11 31.0167 38.0756 3.47882e-11 33.4006 35.7535 3.38787e-11 35.7535 33.4006 3.28626e-11 38.0756 31.0167 3.21165e-11 40.3667 28.602 3.14344e-11 42.627 26.1563 3.05818e-11 44.8564 23.6797 2.96723e-11 47.0548 21.1722 2.89333e-11 49.2223 18.6339 2.78533e-11 51.359 16.0646 2.72848e-11 53.4647 13.4644 2.67164e-11 55.5396 10.8333 2.55795e-11 57.5835 8.17136 2.50111e-11 59.5965 5.47848 2.38742e-11 61.5787 2.75469 2.34195e-11 63.5299 -1.02318e-12 2.251e-11 65.4502 -2.78559 2.13731e-11 1.17097e-11 67.3065 5.0477e-11 2.78559 65.4502 4.94751e-11 5.53799 63.5608 4.8729e-11 8.2572 61.6382 4.74927e-11 10.9432 59.6824 4.65548e-11 13.596 57.6934 4.52758e-11 16.2157 55.6712 4.44516e-11 18.8021 53.6158 4.33147e-11 21.3554 51.5272 4.24052e-11 23.8754 49.4055 4.1382e-11 26.3623 47.2505 4.0302e-11 28.816 45.0624 3.9222e-11 31.2365 42.841 3.81988e-11 33.6238 40.5865 3.70619e-11 35.9779 38.2988 3.61524e-11 38.2988 35.9779 3.52145e-11 40.5865 33.6238 3.45324e-11 42.841 31.2365 3.37934e-11 45.0624 28.816 3.29123e-11 47.2505 26.3623 3.21165e-11 49.4055 23.8754 3.12639e-11 51.5272 21.3554 3.04681e-11 53.6158 18.8021 3.00133e-11 55.6712 16.2157 2.92175e-11 57.6934 13.596 2.80806e-11 59.6824 10.9432 2.75122e-11 61.6382 8.2572 2.68301e-11 63.5608 5.53799 2.6148e-11 65.4502 2.78559 2.52385e-11 67.3065 -5.68434e-13 2.45564e-11 48.6818 -7.50333e-12 -2.0691e-11 46.6699 1.3455 -2.12133e-11 44.6819 2.71481 -2.18492e-11 42.7176 4.10791 -2.25384e-11 40.7771 5.52481 -2.31353e-11 38.8605 6.96551 -2.39879e-11 36.9676 8.43001 -2.44569e-11 35.0985 9.9183 -2.49827e-11 33.2533 11.4304 -2.57216e-11 31.4318 12.9663 -2.62901e-11 29.6341 14.526 -2.68869e-11 27.8602 16.1095 -2.75691e-11 26.1102 17.7168 -2.81659e-11 24.3839 19.3478 -2.87912e-11 22.6814 21.0027 -2.9388e-11 21.0027 22.6814 -3.02016e-11 19.3478 24.3839 -3.13278e-11 17.7168 26.1102 -3.25429e-11 16.1095 27.8602 -3.35376e-11 14.526 29.6341 -3.46176e-11 12.9663 31.4318 -3.57261e-11 11.4304 33.2533 -3.67777e-11 9.9183 35.0985 -3.79146e-11 8.43001 36.9676 -3.91083e-11 6.96551 38.8605 -4.00178e-11 5.52481 40.7771 -4.10409e-11 4.10791 42.7176 -4.22915e-11 2.71481 44.6819 -4.33147e-11 1.3455 46.6699 -4.42242e-11 -1.64846e-11 48.6818 -4.55884e-11 46.6699 -1.3455 -1.80753e-11 44.704 -6.51523e-12 -1.87117e-11 42.7603 1.36766 -1.95328e-11 40.8387 2.75748 -2.02403e-11 38.9393 4.16946 -2.05356e-11 37.062 5.60359 -2.14988e-11 35.2069 7.05988 -2.22205e-11 33.3739 8.53833 -2.26579e-11 31.5631 10.0389 -2.33654e-11 29.7745 11.5617 -2.39734e-11 28.008 13.1066 -2.4695e-11 26.2636 14.6737 -2.53598e-11 24.5415 16.2629 -2.59962e-11 22.8414 17.8743 -2.65758e-11 21.1636 19.5079 -2.73258e-11 19.5079 21.1636 -2.81467e-11 17.8743 22.8414 -2.92729e-11 16.2629 24.5415 -3.02711e-11 14.6737 26.2636 -3.13333e-11 13.1066 28.008 -3.23671e-11 11.5617 29.7745 -3.3543e-11 10.0389 31.5631 -3.46336e-11 8.53833 33.3739 -3.57811e-11 7.05988 35.2069 -3.67012e-11 5.60359 37.062 -3.78771e-11 4.16946 38.9393 -3.88825e-11 2.75748 40.8387 -3.98878e-11 1.36766 42.7603 -4.08932e-11 -1.50457e-11 44.704 -4.22396e-11 -1.3455 46.6699 -4.33018e-11 44.6819 -2.71481 -1.52323e-11 42.7603 -1.36766 -1.60592e-11 40.8592 -5.71898e-12 -1.70602e-11 38.9787 1.38818 -1.76153e-11 37.1186 2.79687 -1.81704e-11 35.2791 4.22608 -1.88677e-11 33.4601 5.67581 -1.96289e-11 31.6616 7.14605 -2.03332e-11 29.8836 8.63681 -2.10375e-11 28.1261 10.1481 -2.17419e-11 26.3892 11.6799 -2.25031e-11 24.6728 13.2322 -2.31506e-11 22.9768 14.805 -2.38265e-11 21.3014 16.3983 -2.44172e-11 19.6466 18.0122 -2.52352e-11 18.0122 19.6466 -2.60136e-11 16.3983 21.3014 -2.71255e-11 14.805 22.9768 -2.81983e-11 13.2322 24.6728 -2.92285e-11 11.6799 26.3892 -3.02303e-11 10.1481 28.1261 -3.13883e-11 8.63681 29.8836 -3.24327e-11 7.14605 31.6616 -3.3534e-11 5.67581 33.4601 -3.45784e-11 4.22608 35.2791 -3.56796e-11 2.79687 37.1186 -3.68377e-11 1.38818 38.9787 -3.78252e-11 -1.36495e-11 40.8592 -3.88696e-11 -1.36766 42.7603 -4.01414e-11 -2.71481 44.6819 -4.12994e-11 42.7176 -4.10791 -1.29008e-11 40.8387 -2.75748 -1.37353e-11 38.9787 -1.38818 -1.45733e-11 37.1375 -5.01998e-12 -1.51751e-11 35.3152 1.40705 -1.58052e-11 33.5118 2.83298 -1.66344e-11 31.7272 4.27778 -1.72219e-11 29.9616 5.74146 -1.81648e-11 28.2148 7.22401 -1.86529e-11 26.4868 8.72543 -1.9482e-11 24.7778 10.2457 -2.01406e-11 23.0876 11.7849 -2.07992e-11 21.4163 13.343 -2.15715e-11 19.7639 14.9199 -2.22586e-11 18.1304 16.5157 -2.30309e-11 16.5157 18.1304 -2.37651e-11 14.9199 19.7639 -2.49e-11 13.343 21.4163 -2.59834e-11 11.7849 23.0876 -2.70953e-11 10.2457 24.7778 -2.81503e-11 8.72543 26.4868 -2.92337e-11 7.22401 28.2148 -3.02887e-11 