<?xml version="1.0"?> 
<VTKFile type="StructuredGrid" version="0.1"> 
<StructuredGrid WholeExtent="0 14 0 14 0 29"> 
<Piece Extent="0 14 0 14 0 29"> 
<PointData>
<DataArray type="Float32" Name="hfield" format="ascii" NumberOfComponents="3"> 
-140.574 -3.30829e-11 6.33236e-11 -131.921 -11.429 5.7419e-11 -123.054 -22.6444 5.16351e-11 -113.974 -33.6464 4.5695e-11 -104.681 -44.4347 3.98614e-11 -95.1734 -55.0095 3.40066e-11 -85.4528 -65.3708 2.81233e-11 -75.5186 -75.5186 2.22542e-11 -65.3708 -85.4528 1.80904e-11 -55.0095 -95.1734 1.38698e-11 -44.4347 -104.681 9.63496e-12 -33.6464 -113.974 5.42855e-12 -22.6444 -123.054 1.13687e-12 -11.429 -131.921 -3.09797e-12 -1.25056e-12 -140.574 -7.21911e-12 -131.921 11.429 5.8663e-11 -122.871 -3.42552e-11 5.29858e-11 -113.639 -11.246 4.73513e-11 -104.223 -22.3089 4.16883e-11 -94.6243 -33.1888 3.5997e-11 -84.8426 -43.8856 3.03838e-11 -74.8779 -54.3994 2.46995e-11 -64.7302 -64.7302 1.90295e-11 -54.3994 -74.8779 1.46017e-11 -43.8856 -84.8426 1.0174e-11 -33.1888 -94.6243 5.76042e-12 -22.3089 -104.223 1.34687e-12 -11.246 -113.639 -3.03825e-12 -2.97717e-12 -122.871 -7.48022e-12 11.429 -131.921 -1.18653e-11 -123.054 22.6444 5.40308e-11 -113.639 11.246 4.85651e-11 -104.07 -3.61169e-11 4.31527e-11 -94.3498 -11.0934 3.76462e-11 -84.4766 -22.0343 3.2168e-11 -74.4509 -32.8227 2.67183e-11 -64.2726 -43.4585 2.12473e-11 -53.9418 -53.9418 1.57621e-11 -43.4585 -64.2726 1.11272e-11 -32.8227 -74.4509 6.51365e-12 -22.0343 -84.4766 1.91429e-12 -11.0934 -94.3498 -2.72059e-12 -3.76588e-12 -104.07 -7.27022e-12 11.246 -113.639 -1.19193e-11 22.6444 -123.054 -1.64831e-11 -113.974 33.6464 4.95123e-11 -104.223 22.3089 4.41959e-11 -94.3498 11.0934 3.89044e-11 -84.3545 -3.81704e-11 3.36537e-11 -74.2373 -10.9714 2.83533e-11 -63.9981 -21.8208 2.306e-11 -53.6368 -32.5481 1.77809e-11 -43.1535 -43.1535 1.24948e-11 -32.5481 -53.6368 7.6776e-12 -21.8208 -63.9981 2.86045e-12 -10.9714 -74.2373 -1.94604e-12 -4.05009e-12 -84.3545 -6.75964e-12 11.0934 -94.3498 -1.15732e-11 22.3089 -104.223 -1.63868e-11 33.6464 -113.974 -2.11578e-11 -104.681 44.4347 4.48659e-11 -94.6243 33.1888 3.98303e-11 -84.4766 22.0343 3.47555e-11 -74.2373 10.9714 2.96186e-11 -63.9065 -4.02167e-11 2.45102e-11 -53.4842 -10.8799 1.94301e-11 -42.9704 -21.6683 1.43359e-11 -32.3651 -32.3651 9.22739e-12 -21.6683 -42.9704 4.21377e-12 -10.8799 -53.4842 -7.85644e-13 -3.99325e-12 -63.9065 -5.81348e-12 10.9714 -74.2373 -1.08271e-11 22.0343 -84.4766 -1.58052e-11 33.1888 -94.6243 -2.08401e-11 44.4347 -104.681 -2.58324e-11 -95.1734 55.0095 4.03048e-11 -84.8426 43.8856 3.53953e-11 -74.4509 32.8227 3.05019e-11 -63.9981 21.8208 2.55942e-11 -53.4842 10.8799 2.06741e-11 -42.9094 -4.20073e-11 1.57789e-11 -32.2736 -10.8189 1.08695e-11 -21.5767 -21.5767 5.96714e-12 -10.8189 -32.2736 7.42829e-13 -3.58114e-12 -42.9094 -4.45661e-12 10.8799 -53.4842 -9.66671e-12 21.8208 -63.9981 -1.48732e-11 32.8227 -74.4509 -2.00727e-11 43.8856 -84.8426 -2.52934e-11 55.0095 -95.1734 -3.05213e-11 -85.4528 65.3708 3.57507e-11 -74.8779 54.3994 3.09995e-11 -64.2726 43.4585 2.62935e-11 -53.6368 32.5481 2.1584e-11 -42.9704 21.6683 1.68576e-11 -32.2736 10.8189 1.21401e-11 -21.5462 -4.33715e-11 7.42084e-12 -10.7884 -10.7884 2.69978e-12 -2.99849e-12 -21.5462 -2.70857e-12 10.8189 -32.2736 -8.11514e-12 21.6683 -42.9704 -1.35128e-11 32.5481 -53.6368 -1.89336e-11 43.4585 -64.2726 -2.43331e-11 54.3994 -74.8779 -2.97396e-11 65.3708 -85.4528 -3.51817e-11 -75.5186 75.5186 3.11541e-11 -64.7302 64.7302 2.66092e-11 -53.9418 53.9418 2.20785e-11 -43.1535 43.1535 1.75478e-11 -32.3651 32.3651 1.30243e-11 -21.5767 21.5767 8.4936e-12 -10.7884 10.7884 3.96648e-12 -2.84217e-12 -4.42242e-11 -5.63647e-13 10.7884 -10.7884 -6.17063e-12 21.5767 -21.5767 -1.17808e-11 32.3651 -32.3651 -1.73803e-11 43.1535 -43.1535 -2.29869e-11 53.9418 -53.9418 -2.86006e-11 64.7302 -64.7302 -3.42143e-11 75.5186 -75.5186 -3.9828e-11 -65.3708 85.4528 2.92104e-11 -54.3994 74.8779 2.45874e-11 -43.4585 64.2726 1.99787e-11 -32.5481 53.6368 1.53211e-11 -21.6683 42.9704 1.0683e-11 -10.8189 32.2736 6.06803e-12 -4.10694e-12 21.5462 1.42109e-12 10.7884 10.7884 -3.21165e-12 21.5462 -4.43094e-11 -8.88356e-12 32.2736 -10.8189 -1.45395e-11 42.9704 -21.6683 -2.02114e-11 53.6368 -32.5481 -2.58886e-11 64.2726 -43.4585 -3.15232e-11 74.8779 -54.3994 -3.71827e-11 85.4528 -65.3708 -4.28457e-11 -55.0095 95.1734 2.72991e-11 -43.8856 84.8426 2.26024e-11 -32.8227 74.4509 1.78453e-11 -21.8208 63.9981 1.31095e-11 -10.8799 53.4842 8.35954e-12 -5.01643e-12 42.9094 3.61666e-12 10.8189 32.2736 -1.12266e-12 21.5767 21.5767 -5.86198e-12 32.2736 10.8189 -1.1589e-11 42.9094 -4.46221e-11 -1.73124e-11 53.4842 -10.8799 -2.30287e-11 63.9981 -21.8208 -2.87699e-11 74.4509 -32.8227 -3.44968e-11 84.8426 -43.8856 -4.01883e-11 95.1734 -55.0095 -4.59153e-11 -44.4347 104.681 2.54232e-11 -33.1888 94.6243 2.05578e-11 -22.0343 84.4766 1.5703e-11 -10.9714 74.2373 1.08678e-11 -5.72697e-12 63.9065 6.0254e-12 10.8799 53.4842 1.1724e-12 21.6683 42.9704 -3.67351e-12 32.3651 32.3651 -8.51941e-12 42.9704 21.6683 -1.42997e-11 53.4842 10.8799 -2.0087e-11 63.9065 -4.51905e-11 -2.58567e-11 74.2373 -10.9714 -3.16476e-11 84.4766 -22.0343 -3.7403e-11 94.6243 -33.1888 -4.31868e-11 104.681 -44.4347 -4.89848e-11 -33.6464 113.974 2.34763e-11 -22.3089 104.223 1.85718e-11 -11.0934 94.3498 1.35962e-11 -6.05382e-12 84.3545 8.6402e-12 10.9714 74.2373 3.69482e-12 21.8208 63.9981 -1.25056e-12 32.5481 53.6368 -6.21014e-12 43.1535 43.1535 -1.11555e-11 53.6368 32.5481 -1.69962e-11 63.9981 21.8208 -2.28297e-11 74.2373 10.9714 -2.86917e-11 84.3545 -4.5759e-11 -3.45182e-11 94.3498 -11.0934 -4.0373e-11 104.223 -22.3089 -4.61853e-11 113.974 -33.6464 -5.20401e-11 -22.6444 123.054 2.16005e-11 -11.246 113.639 1.64704e-11 -6.807e-12 104.07 1.14682e-11 11.0934 94.3498 6.4091e-12 22.0343 84.4766 1.35714e-12 32.8227 74.4509 -3.70903e-12 43.4585 64.2726 -8.75389e-12 53.9418 53.9418 -1.3813e-11 64.2726 43.4585 -1.97069e-11 74.4509 32.8227 -2.56222e-11 84.4766 22.0343 -3.14913e-11 94.3498 11.0934 -3.74314e-11 104.07 -4.64979e-11 -4.32863e-11 113.639 -11.246 -4.91411e-11 123.054 -22.6444 -5.51665e-11 -11.429 131.921 1.97247e-11 -7.86571e-12 122.871 1.45128e-11 11.246 113.639 9.35074e-12 22.3089 104.223 4.17799e-12 33.1888 94.6243 -9.66338e-13 43.8856 84.8426 -6.1533e-12 54.3994 74.8779 -1.13118e-11 64.7302 64.7302 -1.64562e-11 74.8779 54.3994 -2.24389e-11 84.8426 43.8856 -2.83933e-11 94.6243 33.1888 -3.43761e-11 104.223 22.3089 -4.0302e-11 113.639 11.246 -4.63274e-11 122.871 -4.6839e-11 -5.21823e-11 131.921 -11.429 -5.82361e-11 -9.09495e-12 140.574 1.77351e-11 11.429 131.921 1.24984e-11 22.6444 123.054 7.1978e-12 33.6464 113.974 1.9682e-12 44.4347 104.681 -3.32534e-12 55.0095 95.1734 -8.56915e-12 65.3708 85.4528 -1.38272e-11 75.5186 75.5186 -1.91278e-11 85.4528 65.3708 -2.51603e-11 95.1734 55.0095 -3.11502e-11 104.681 44.4347 -3.71614e-11 113.974 33.6464 -4.3201e-11 123.054 22.6444 -4.91411e-11 131.921 11.429 -5.51381e-11 140.574 -4.70664e-11 -6.11635e-11 -174.071 -4.43379e-11 6.44889e-11 -163.228 -14.0243 5.91349e-11 -152.14 -27.8039 5.38911e-11 -140.808 -41.3387 4.84732e-11 -129.231 -54.6288 4.31797e-11 -117.409 -67.6743 3.78435e-11 -105.342 -80.475 3.25002e-11 -93.031 -93.031 2.71712e-11 -80.475 -105.342 2.21014e-11 -67.6743 -117.409 1.70672e-11 -54.6288 -129.231 1.19655e-11 -41.3387 -140.808 6.99174e-12 -27.8039 -152.14 1.90425e-12 -14.0243 -163.228 -3.21165e-12 8.41283e-12 -174.071 -8.21387e-12 -163.228 14.0243 6.03435e-11 -151.93 -4.39417e-11 5.50619e-11 -140.423 -13.8145 4.98478e-11 -128.706 -27.4193 4.45574e-11 -116.78 -40.8143 3.93096e-11 -104.643 -53.9996 3.40938e-11 -92.2968 -66.9751 2.8814e-11 -79.7408 -79.7408 2.35839e-11 -66.9751 -92.2968 1.83586e-11 -53.9996 -104.643 1.30978e-11 -40.8143 -116.78 7.84047e-12 -27.4193 -128.706 2.58318e-12 -13.8145 -140.423 -2.63858e-12 6.35225e-12 -151.93 -7.90298e-12 14.0243 -163.228 -1.321e-11 -152.14 27.8039 5.60276e-11 -140.423 13.8145 5.08859e-11 -128.531 -4.44373e-11 4.57637e-11 -116.465 -13.6397 4.06345e-11 -104.224 -27.1047 3.54608e-11 -91.8074 -40.3948 3.03156e-11 -79.2164 -53.5101 2.5149e-11 -66.4507 -66.4507 2.00109e-11 -53.5101 -79.2164 1.45714e-11 -40.3948 -91.8074 9.12119e-12 -27.1047 -104.224 3.65856e-12 -13.6397 -116.465 -1.78985e-12 4.05009e-12 -128.531 -7.23827e-12 13.8145 -140.423 -1.26512e-11 27.8039 -152.14 -1.8064e-11 -140.808 41.3387 5.1868e-11 -128.706 27.4193 4.68262e-11 -116.465 13.6397 4.17649e-11 -104.084 -4.52474e-11 3.66867e-11 -91.5627 -13.4999 3.16334e-11 -78.9018 -26.86 2.65587e-11 -66.1011 -40.0802 2.15054e-11 -53.1606 -53.1606 1.6445e-11 -40.0802 -66.1011 1.07753e-11 -26.86 -78.9018 5.1375e-12 -13.4999 -91.5627 -5.02034e-13 1.76215e-12 -104.084 -6.15578e-12 13.6397 -116.465 -1.17953e-11 27.4193 -128.706 -1.74988e-11 41.3387 -140.808 -2.3117e-11 -129.231 54.6288 4.76515e-11 -116.78 40.8143 4.27168e-11 -104.224 27.1047 3.77376e-11 -91.5627 13.4999 3.27407e-11 -78.7969 -4.72937e-11 2.77775e-11 -65.9263 -13.395 2.28161e-11 -52.9508 -26.6852 1.78298e-11 -39.8704 -39.8704 1.28649e-11 -26.6852 -52.9508 7.02e-12 -13.395 -65.9263 1.17869e-12 -5.40012e-13 -78.7969 -4.68395e-12 13.4999 -91.5627 -1.05075e-11 27.1047 -104.224 -1.63666e-11 40.8143 -116.78 -2.22186e-11 54.6288 -129.231 -2.80705e-11 -117.409 67.6743 4.3428e-11 -104.643 53.9996 3.85518e-11 -91.8074 40.3948 3.36961e-11 -78.9018 26.86 2.88142e-11 -65.9263 13.395 2.39323e-11 -52.8809 -5.01927e-11 1.90521e-11 -39.7655 -13.3251 1.41755e-11 -26.5803 -26.5803 9.29541e-12 -13.3251 -39.7655 3.24432e-12 -2.25953e-12 -52.8809 -2.80144e-12 13.395 -65.9263 -8.84099e-12 26.86 -78.9018 -1.49125e-11 40.3948 -91.8074 -2.09449e-11 53.9996 -104.643 -2.69738e-11 67.6743 -117.409 -3.3024e-11 -105.342 80.475 3.92542e-11 -92.2968 66.9751 3.44397e-11 -79.2164 53.5101 2.96924e-11 -66.1011 40.0802 2.48806e-11 -52.9508 26.6852 2.00915e-11 -39.7655 13.3251 1.52997e-11 -26.5453 -5.39444e-11 1.05088e-11 -13.2901 -13.2901 5.71884e-12 -3.33955e-12 -26.5453 -5.28705e-13 13.3251 -39.7655 -6.77003e-12 26.6852 -52.9508 -1.30229e-11 40.0802 -66.1011 -1.9266e-11 53.5101 -79.2164 -2.55233e-11 66.9751 -92.2968 -3.17575e-11 80.475 -105.342 -3.80024e-11 -93.031 93.031 3.50165e-11 -79.7408 79.7408 3.03382e-11 -66.4507 66.4507 2.56244e-11 -53.1606 53.1606 2.09248e-11 -39.8704 39.8704 1.62394e-11 -26.5803 26.5803 1.15398e-11 -13.2901 13.2901 6.84373e-12 -3.63798e-12 -5.87761e-11 2.14847e-12 13.2901 -13.2901 -4.29606e-12 26.5803 -26.5803 -1.07461e-11 39.8704 -39.8704 -1.71873e-11 53.1606 -53.1606 -2.36321e-11 66.4507 -66.4507 -3.00839e-11 79.7408 -79.7408 -3.65144e-11 93.031 -93.031 -4.29592e-11 -80.475 105.342 3.20881e-11 -66.9751 92.2968 2.74065e-11 -53.5101 79.2164 2.27751e-11 -40.0802 66.1011 1.81437e-11 -26.6852 52.9508 1.34834e-11 -13.3251 39.7655 8.84537e-12 -4.59011e-12 26.5453 4.19931e-12 13.2901 13.2901 -4.54747e-13 26.5453 -5.9444e-11 -6.99751e-12 39.7655 -13.3251 -1.35492e-11 52.9508 -26.6852 -2.00888e-11 66.1011 -40.0802 -2.66418e-11 79.2164 -53.5101 -3.31681e-11 92.2968 -66.9751 -3.97264e-11 105.342 -80.475 -4.62812e-11 -67.6743 117.409 2.91251e-11 -53.9996 104.643 2.45102e-11 -40.3948 91.8074 1.99325e-11 -26.86 78.9018 1.53264e-11 -13.395 65.9263 1.07327e-11 -5.96856e-12 52.8809 6.13909e-12 13.3251 39.7655 1.54188e-12 26.5803 26.5803 -3.05889e-12 39.7655 13.3251 -9.69447e-12 52.8809 -5.99414e-11 -1.63478e-11 65.9263 -13.395 -2.29896e-11 78.9018 -26.86 -2.96581e-11 91.8074 -40.3948 -3.62768e-11 104.643 -53.9996 -4.29381e-11 117.409 -67.6743 -4.95746e-11 -54.6288 129.231 2.61906e-11 -40.8143 116.78 2.16316e-11 -27.1047 104.224 1.70832e-11 -13.4999 91.5627 1.25517e-11 -7.3328e-12 78.7969 7.9865e-12 13.395 65.9263 3.43547e-12 26.6852 52.9508 -1.10134e-12 39.8704 39.8704 -5.65592e-12 52.9508 26.6852 -1.24096e-11 65.9263 13.395 -1.91598e-11 78.7969 -6.05382e-11 -2.58957e-11 91.5627 -13.4999 -3.26708e-11 104.224 -27.1047 -3.94067e-11 116.78 -40.8143 -4.61569e-11 129.231 -54.6288 -5.29212e-11 -41.3387 140.808 2.32347e-11 -27.4193 128.706 1.87361e-11 -13.6397 116.465 1.42464e-11 -8.29914e-12 104.084 9.74154e-12 13.4999 91.5627 5.23315e-12 26.86 78.9018 7.4607e-13 40.0802 66.1011 -3.76588e-12 53.1606 53.1606 -8.26361e-12 66.1011 40.0802 -1.51061e-11 78.9018 26.86 -2.19522e-11 91.5627 13.4999 -2.87912e-11 104.084 -6.12772e-11 -3.5655e-11 116.465 -13.6397 -4.24976e-11 128.706 -27.4193 -4.93543e-11 140.808 -41.3387 -5.61755e-11 -27.8039 152.14 2.03215e-11 -13.8145 140.423 1.58558e-11 -9.67759e-12 128.531 1.13971e-11 13.6397 116.465 6.94556e-12 27.1047 104.224 2.47269e-12 40.3948 91.8074 -1.97531e-12 53.5101 79.2164 -6.40199e-12 66.4507 66.4507 -1.08642e-11 79.2164 53.5101 -1.78328e-11 91.8074 40.3948 -2.47695e-11 104.224 27.1047 -3.16973e-11 116.465 13.6397 -3.86677e-11 128.531 -6.19593e-11 -4.56026e-11 140.423 -13.8145 -5.2566e-11 152.14 -27.8039 -5.95293e-11 -14.0243 163.228 1.73372e-11 -1.10276e-11 151.93 1.29656e-11 13.8145 140.423 8.51585e-12 27.4193 128.706 4.17089e-12 40.8143 116.78 -2.55795e-13 53.9996 104.643 -4.66116e-12 66.9751 92.2968 -9.05942e-12 79.7408 79.7408 -1.34577e-11 92.2968 66.9751 -2.05205e-11 104.643 53.9996 -2.75904e-11 116.78 40.8143 -3.46105e-11 128.706 27.4193 -4.16946e-11 140.423 13.8145 -4.8729e-11 151.93 -6.28688e-11 -5.57634e-11 163.228 -14.0243 -6.28404e-11 -1.25056e-11 174.071 1.44098e-11 14.0243 163.228 1.01057e-11 27.8039 152.14 5.64526e-12 41.3387 140.808 1.39266e-12 54.6288 129.231 -3.03402e-12 67.6743 117.409 -7.36833e-12 80.475 105.342 -1.17097e-11 93.031 93.031 -1.60583e-11 105.342 80.475 -2.32134e-11 117.409 67.6743 -3.03828e-11 129.231 54.6288 -3.75309e-11 140.808 41.3387 -4.47073e-11 152.14 27.8039 -5.18128e-11 163.228 14.0243 -5.8975e-11 174.071 -6.41194e-11 -6.61657e-11 -208.967 -5.79803e-11 3.60387e-11 -195.782 -16.6676 3.3598e-11 -182.33 -33.0673 3.11076e-11 -168.609 -49.199 2.86136e-11 -154.62 -65.0629 2.60911e-11 -140.364 -80.6589 2.359e-11 -125.839 -95.987 2.10747e-11 -111.047 -111.047 1.86162e-11 -95.987 -125.839 1.79909e-11 -80.6589 -140.364 1.73941e-11 -65.0629 -154.62 1.68399e-11 -49.199 -168.609 1.62004e-11 -33.0673 -182.33 1.56604e-11 -16.6676 -195.782 1.50635e-11 6.00267e-11 -208.967 1.44951e-11 -195.782 16.6676 3.60935e-11 -182.1 -5.07609e-11 3.32023e-11 -168.188 -16.438 3.04176e-11 -154.046 -32.6463 2.75762e-11 -139.675 -48.625 2.4756e-11 -125.074 -64.374 2.19003e-11 -110.243 -79.8935 1.90447e-11 -95.1833 -95.1833 1.62032e-11 -79.8935 -110.243 1.45491e-11 -64.374 -125.074 1.2824e-11 -48.625 -139.675 1.11415e-11 -32.6463 -154.046 9.48737e-12 -16.438 -168.188 7.73381e-12 5.75398e-11 -182.1 6.06552e-12 16.6676 -195.782 4.39722e-12 -182.33 33.0673 3.60629e-11 -168.188 16.438 3.28509e-11 -153.855 -4.69029e-11 2.97135e-11 -139.331 -16.2466 2.65317e-11 -124.615 -32.3018 2.33143e-11 -109.708 -48.1657 2.01822e-11 -94.6092 -63.8382 1.69862e-11 -79.3194 -79.3194 1.38328e-11 -63.8382 -94.6092 1.10433e-11 -48.1657 -109.708 8.23252e-12 -32.3018 -124.615 5.48568e-12 -16.2466 -139.331 2.66068e-12 5.21254e-11 -153.855 -1.07473e-13 16.438 -168.188 -2.90405e-12 33.0673 -182.33 -5.72905e-12 -168.609 49.199 3.6004e-11 -154.046 32.6463 3.25191e-11 -139.331 16.2466 2.902e-11 -124.462 -4.60432e-11 2.55156e-11 -109.44 -16.0935 2.19863e-11 -94.2648 -32.0339 1.84641e-11 -78.9367 -47.8213 1.49561e-11 -63.4555 -63.4555 1.14482e-11 -47.8213 -78.9367 7.55883e-12 -32.0339 -94.2648 3.64819e-12 -16.0935 -109.44 -2.55358e-13 4.44231e-11 -124.462 -4.13758e-12 16.2466 -139.331 -8.06244e-12 32.6463 -154.046 -1.19589e-11 49.199 -168.609 -1.57985e-11 -154.62 65.0629 3.60161e-11 -139.675 48.625 3.21624e-11 -124.615 32.3018 2.83159e-11 -109.44 16.0935 2.4464e-11 -94.15 -4.68106e-11 2.06015e-11 -78.7454 -15.9787 1.67602e-11 -63.2259 -31.8426 1.2919e-11 -47.5917 -47.5917 9.05645e-12 -31.8426 -63.2259 4.06015e-12 -15.9787 -78.7454 -9.43256e-13 3.57545e-11 -94.15 -5.93955e-12 16.0935 -109.44 -1.09216e-11 32.3018 -124.615 -1.59464e-11 48.625 -139.675 -2.09569e-11 65.0629 -154.62 -2.5939e-11 -140.364 80.6589 3.59856e-11 -125.074 64.374 3.1796e-11 -109.708 48.1657 2.76189e-11 -94.2648 32.0339 2.34479e-11 -78.7454 15.9787 1.92415e-11 -63.1494 -4.95675e-11 1.50563e-11 -47.4768 -15.9022 1.08605e-11 -31.7278 -31.7278 6.67183e-12 -15.9022 -47.4768 5.70345e-13 2.65459e-11 -63.1494 -5.53114e-12 15.9787 -78.7454 -1.1638e-11 32.0339 -94.2648 -1.77483e-11 48.1657 -109.708 -2.38232e-11 64.374 -125.074 -2.99122e-11 80.6589 -140.364 -3.60368e-11 -125.839 95.987 3.60048e-11 -110.243 79.8935 3.1466e-11 -94.6092 63.8382 2.69529e-11 -78.9367 47.8213 2.23945e-11 -63.2259 31.8426 1.78708e-11 -47.4768 15.9022 1.33418e-11 -31.6895 -5.34328e-11 8.81627e-12 -15.8639 -15.8639 4.28722e-12 1.76215e-11 -31.6895 -2.91502e-12 15.9022 -47.4768 -1.01208e-11 31.8426 -63.2259 -1.73257e-11 47.8213 -78.9367 -2.45182e-11 63.8382 -94.6092 -3.1732e-11 79.8935 -110.243 -3.896e-11 95.987 -125.839 -4.6156e-11 -111.047 111.047 3.59917e-11 -95.1833 95.1833 3.11091e-11 -79.3194 79.3194 2.62266e-11 -63.4555 63.4555 2.13724e-11 -47.5917 47.5917 1.6504e-11 -31.7278 31.7278 1.16428e-11 -15.8639 15.8639 6.77086e-12 9.66338e-12 -5.78666e-11 1.90297e-12 15.8639 -15.8639 -6.39912e-12 31.7278 -31.7278 -1.47079e-11 47.5917 -47.5917 -2.30201e-11 63.4555 -63.4555 -3.13182e-11 79.3194 -79.3194 -3.96376e-11 95.1833 -95.1833 -4.79286e-11 111.047 -111.047 -5.6248e-11 -95.987 125.839 3.42979e-11 -79.8935 110.243 2.9778e-11 -63.8382 94.6092 2.52784e-11 -47.8213 78.9367 2.07816e-11 -31.8426 63.2259 1.62679e-11 -15.9022 47.4768 1.17506e-11 4.718e-12 31.6895 7.23688e-12 15.8639 15.8639 2.73559e-12 31.6895 -6.1263e-11 -5.37881e-12 47.4768 -15.9022 -1.34861e-11 63.2259 -31.8426 -2.16005e-11 78.9367 -47.8213 -2.97007e-11 94.6092 -63.8382 -3.77938e-11 110.243 -79.8935 -4.59295e-11 125.839 -95.987 -5.40439e-11 -80.6589 140.364 3.26708e-11 -64.374 125.074 2.84528e-11 -48.1657 109.708 2.43272e-11 -32.0339 94.2648 2.01759e-11 -15.9787 78.7454 1.60156e-11 1.3074e-12 63.1494 1.18732e-11 15.9022 47.4768 7.71649e-12 31.7278 31.7278 3.55982e-12 47.4768 15.9022 -4.35207e-12 63.1494 -6.53415e-11 -1.22604e-11 78.7454 -15.9787 -2.01652e-11 94.2648 -32.0339 -2.80878e-11 109.708 -48.1657 -3.5989e-11 125.074 -64.374 -4.38973e-11 140.364 -80.6589 -5.18412e-11 -65.0629 154.62 3.09655e-11 -48.625 139.675 2.71996e-11 -32.3018 124.615 2.33449e-11 -16.0935 109.44 1.95861e-11 -6.25278e-13 94.15 1.57954e-11 15.9787 78.7454 1.19869e-11 31.8426 63.2259 8.19256e-12 47.5917 47.5917 4.39115e-12 63.2259 31.8426 -3.31823e-12 78.7454 15.9787 -1.10418e-11 94.15 -7.03153e-11 -1.87725e-11 109.44 -16.0935 -2.6489e-11 124.615 -32.3018 -3.41913e-11 139.675 -48.625 -4.18794e-11 154.62 -65.0629 -4.96243e-11 -49.199 168.609 2.93028e-11 -32.6463 154.046 2.58638e-11 -16.2466 139.331 2.24247e-11 -9.37916e-13 124.462 1.89715e-11 16.0935 109.44 1.55111e-11 32.0339 94.2648 1.21219e-11 47.8213 78.9367 8.65441e-12 63.4555 63.4555 5.21538e-12 78.9367 47.8213 -2.29505e-12 94.2648 32.0339 -9.80549e-12 109.44 16.0935 -1.73372e-11 124.462 -7.67386e-11 -2.48406e-11 139.331 -16.2466 -3.23581e-11 154.046 -32.6463 -3.98757e-11 168.609 -49.199 -4.74643e-11 -33.0673 182.33 2.76259e-11 -16.438 168.188 2.45244e-11 -3.41061e-13 153.855 2.143e-11 16.2466 139.331 1.8396e-11 32.3018 124.615 1.53122e-11 48.1657 109.708 1.22213e-11 63.8382 94.6092 9.15179e-12 79.3194 79.3194 6.05382e-12 94.6092 63.8382 -1.28608e-12 109.708 48.1657 -8.60467e-12 124.615 32.3018 -1.59162e-11 139.331 16.2466 -2.32347e-11 153.855 -8.42419e-11 -3.06102e-11 168.188 -16.438 -3.78861e-11 182.33 -33.0673 -4.51621e-11 -16.6676 195.782 2.59774e-11 -1.13687e-13 182.1 2.32205e-11 16.438 168.188 2.05063e-11 32.6463 154.046 1.77778e-11 48.625 139.675 1.50777e-11 64.374 125.074 1.23492e-11 79.8935 110.243 9.63496e-12 95.1833 95.1833 6.89226e-12 110.243 79.8935 -2.4869e-13 125.074 64.374 -7.38964e-12 139.675 48.625 -1.44951e-11 154.046 32.6463 -2.16289e-11 168.188 16.438 -2.87628e-11 182.1 -9.39053e-11 -3.58966e-11 195.782 -16.6676 -4.3002e-11 1.36424e-12 208.967 2.4329e-11 16.6676 195.782 2.19416e-11 33.0673 182.33 1.95541e-11 49.199 168.609 1.72022e-11 65.0629 154.62 1.48361e-11 80.6589 140.364 1.24345e-11 95.987 125.839 1.01039e-11 111.047 111.047 7.70228e-12 125.839 95.987 7.88702e-13 140.364 80.6589 -6.12488e-12 154.62 65.0629 -1.30882e-11 168.609 49.199 -1.99805e-11 182.33 33.0673 -2.69722e-11 195.782 16.6676 -3.38787e-11 208.967 -1.05729e-10 -4.08136e-11 -224.58 -6.0254e-12 4.44538e-11 -210.309 -17.8124 4.10172e-11 -195.766 -35.3523 3.75386e-11 -180.951 -52.6198 3.4069e-11 -165.863 -69.6148 3.06195e-11 -150.503 -86.3373 2.7184e-11 -134.87 -102.787 2.36917e-11 -118.965 -118.965 2.02491e-11 -102.787 -134.87 1.33328e-11 -86.3373 -150.503 6.41287e-12 -69.6148 -165.863 -5.01821e-13 -52.6198 -180.951 -7.40918e-12 -35.3523 -195.766 -1.44236e-11 -17.8124 -210.309 -2.12959e-11 2.01169e-10 -224.58 -2.82103e-11 -210.309 17.8124 4.262e-11 -195.533 -1.77698e-11 3.89767e-11 -180.523 -17.5788 3.53824e-11 -165.279 -34.9242 3.18069e-11 -149.802 -52.0359 2.81559e-11 -134.092 -68.9142 2.45945e-11 -118.148 -85.5589 2.09716e-11 -101.97 -101.97 1.73599e-11 -85.5589 -118.148 1.08061e-11 -68.9142 -134.092 4.22709e-12 -52.0359 -149.802 -2.31796e-12 -34.9242 -165.279 -8.87711e-12 -17.5788 -180.523 -1.54294e-11 1.56081e-10 -195.533 -2.20456e-11 17.8124 -210.309 -2.85477e-11 -195.766 35.3523 4.08008e-11 -180.523 17.5788 3.70102e-11 -165.085 -2.78071e-11 3.32357e-11 -149.452 -17.3842 2.95246e-11 -133.625 -34.5739 2.57242e-11 -117.603 -51.5689 2.19791e-11 -101.386 -68.3693 1.8227e-11 -84.9751 -84.9751 1.44638e-11 -68.3693 -101.386 8.26141e-12 -51.5689 -117.603 2.06307e-12 -34.5739 -133.625 -4.13365e-12 -17.3842 -149.452 -1.03592e-11 1.1989e-10 -165.085 -1.65275e-11 17.5788 -180.523 -2.27309e-11 35.3523 -195.766 -2.8957e-11 -180.951 52.6198 3.89315e-11 -165.279 34.9242 3.49908e-11 -149.452 17.3842 3.11034e-11 -133.469 -3.63372e-11 2.72016e-11 -117.33 -17.2285 2.32928e-11 -101.036 -34.3014 1.93819e-11 -84.5858 -51.2186 1.54748e-11 -67.98 -67.98 1.1564e-11 -51.2186 -84.5858 5.72613e-12 -34.3014 -101.036 -1.08277e-13 -17.2285 -117.33 -5.93569e-12 9.01537e-11 -133.469 -1.17985e-11 17.3842 -149.452 -1.76328e-11 34.9242 -165.279 -2.34671e-11 52.6198 -180.951 -2.9337e-11 -165.863 69.6148 3.70771e-11 -149.802 52.0359 3.30626e-11 -133.625 34.5739 2.89627e-11 -117.33 17.2285 2.49338e-11 -100.919 -4.38547e-11 2.08433e-11 -84.3912 -17.1118 1.67884e-11 -67.7465 -34.1068 1.27298e-11 -50.985 -50.985 8.67146e-12 -34.1068 -67.7465 3.19245e-12 -17.1118 -84.3912 -2.29733e-12 6.61728e-11 -100.919 -7.77637e-12 17.2285 -117.33 -1.32449e-11 34.5739 -133.625 -1.87201e-11 52.0359 -149.802 -2.42317e-11 69.6148 -165.863 -2.9689e-11 -150.503 86.3373 3.52435e-11 -134.092 68.9142 3.10178e-11 -117.603 51.5689 2.68107e-11 -101.036 34.3014 2.26249e-11 -84.3912 17.1118 1.83938e-11 -67.6687 -5.05338e-11 1.42019e-11 -50.8683 -17.0339 9.98145e-12 -33.99 -33.99 5.76982e-12 -17.0339 -50.8683 6.51402e-13 4.65334e-11 -67.6687 -4.46868e-12 17.1118 -84.3912 -9.5763e-12 34.3014 -101.036 -1.4709e-11 51.5689 -117.603 -1.98147e-11 68.9142 -134.092 -2.49242e-11 86.3373 -150.503 -3.00514e-11 -134.87 102.787 3.34224e-11 -118.148 85.5589 2.90476e-11 -101.386 68.3693 2.46951e-11 -84.5858 51.2186 2.03197e-11 -67.7465 34.1068 1.59621e-11 -50.8683 17.0339 1.15957e-11 -33.9511 -5.67297e-11 7.23112e-12 -16.995 -16.995 2.87001e-12 3.00879e-11 -33.9511 -1.89036e-12 17.0339 -50.8683 -6.64799e-12 34.1068 -67.7465 -1.13993e-11 51.2186 -84.5858 -1.61535e-11 68.3693 -101.386 -2.09325e-11 85.5589 -118.148 -2.56687e-11 102.787 -134.87 -3.04495e-11 -118.965 118.965 3.15706e-11 -101.97 101.97 2.70501e-11 -84.9751 84.9751 2.25434e-11 -67.98 67.98 1.80229e-11 -50.985 50.985 1.35166e-11 -33.99 33.99 9.00296e-12 -16.995 16.995 4.48492e-12 1.52625e-11 -6.2812e-11 -2.74632e-14 16.995 -16.995 -4.42526e-12 33.99 -33.99 -8.82395e-12 50.985 -50.985 -1.32219e-11 67.98 -67.98 -1.76143e-11 84.9751 -84.9751 -2.20034e-11 101.97 -101.97 -2.64245e-11 118.965 -118.965 -3.08095e-11 -102.787 134.87 3.19993e-11 -85.5589 118.148 2.73862e-11 -68.3693 101.386 2.27854e-11 -51.2186 84.5858 1.81714e-11 -34.1068 67.7465 1.35769e-11 -17.0339 50.8683 8.96858e-12 7.64544e-12 33.9511 4.36751e-12 16.995 16.995 -2.40807e-13 33.9511 -7.75167e-11 -5.40334e-12 50.8683 -17.0339 -1.0565e-11 67.7465 -34.1068 -1.57231e-11 84.5858 -51.2186 -2.08936e-11 101.386 -68.3693 -2.60507e-11 118.148 -85.5589 -3.11955e-11 134.87 -102.787 -3.63848e-11 -86.3373 150.503 3.24127e-11 -68.9142 134.092 2.77108e-11 -51.5689 117.603 2.30316e-11 -34.3014 101.036 1.83264e-11 -17.1118 84.3912 1.36382e-11 8.59757e-13 67.6687 8.93829e-12 17.0339 50.8683 4.242e-12 33.99 33.99 -4.54303e-13 50.8683 17.0339 -6.37818e-12 67.6687 -9.17453e-11 -1.23074e-11 84.3912 -17.1118 -1.82365e-11 101.036 -34.3014 -2.41497e-11 117.603 -51.5689 -3.00749e-11 134.092 -68.9142 -3.60222e-11 150.503 -86.3373 -4.19265e-11 -69.6148 165.863 3.2812e-11 -52.0359 149.802 2.80311e-11 -34.5739 133.625 2.32553e-11 -17.2285 117.33 1.84562e-11 -4.41247e-12 100.919 1.36941e-11 17.1118 84.3912 8.90343e-12 34.1068 67.7465 4.12181e-12 50.985 50.985 -6.5814e-13 67.7465 34.1068 -7.35664e-12 84.3912 17.1118 -1.40462e-11 100.919 -1.04237e-10 -2.07383e-11 117.33 -17.2285 -2.74339e-11 133.625 -34.5739 -3.4126e-11 149.802 -52.0359 -4.07827e-11 165.863 -69.6148 -4.74785e-11 -52.6198 180.951 3.32183e-11 -34.9242 165.279 2.83881e-11 -17.3842 149.452 2.35089e-11 -7.95097e-12 133.469 1.8624e-11 17.2285 117.33 1.37323e-11 34.3014 101.036 8.88301e-12 51.2186 84.5858 3.98392e-12 67.98 67.98 -8.79519e-13 84.5858 51.2186 -8.33866e-12 101.036 34.3014 -1.57901e-11 117.33 17.2285 -2.32312e-11 133.469 -1.14397e-10 -3.07006e-11 149.452 -17.3842 -3.81528e-11 165.279 -34.9242 -4.559e-11 180.951 -52.6198 -5.30274e-11 -35.3523 195.766 3.37175e-11 -17.5788 180.523 2.87009e-11 -9.21574e-12 165.085 2.37107e-11 17.3842 149.452 1.87446e-11 34.5739 133.625 1.37866e-11 51.5689 117.603 8.82516e-12 68.3693 101.386 3.88534e-12 84.9751 84.9751 -1.10134e-12 101.386 68.3693 -9.31411e-12 117.603 51.5689 -1.75308e-11 133.625 34.5739 -2.57312e-11 149.452 17.3842 -3.39322e-11 165.085 -1.21219e-10 -4.21749e-11 180.523 -17.5788 -5.04041e-11 195.766 -35.3523 -5.85829e-11 -17.8124 210.309 3.40457e-11 -8.40217e-12 195.533 2.90517e-11 17.5788 180.523 2.39616e-11 34.9242 165.279 1.8889e-11 52.0359 149.802 1.38903e-11 68.9142 134.092 8.80274e-12 85.5589 118.148 3.75411e-12 101.97 101.97 -1.29452e-12 118.148 85.5589 -1.02919e-11 134.092 68.9142 -1.92643e-11 149.802 52.0359 -2.82847e-11 165.279 34.9242 -3.72409e-11 180.523 17.5788 -4.62186e-11 195.533 -1.23805e-10 -5.51821e-11 210.309 -17.8124 -6.41887e-11 -3.86535e-12 224.58 3.45017e-11 17.8124 210.309 2.93523e-11 35.3523 195.766 2.42032e-11 52.6198 180.951 1.90592e-11 69.6148 165.863 1.39018e-11 86.3373 150.503 8.76987e-12 102.787 134.87 3.63043e-12 118.965 118.965 -1.523e-12 134.87 102.787 -1.12569e-11 150.503 86.3373 -2.10085e-11 165.863 69.6148 -3.07383e-11 180.951 52.6198 -4.0508e-11 195.766 35.3523 -5.0199e-11 210.309 17.8124 -5.99467e-11 224.58 -1.21133e-10 -6.97655e-11 -238.427 -8.07177e-12 5.18909e-11 -223.289 -18.9233 4.68003e-11 -207.861 -37.5554 4.17821e-11 -192.14 -55.8963 3.67022e-11 -176.129 -73.946 3.16547e-11 -159.827 -91.7045 2.66045e-11 -143.233 -109.172 2.15366e-11 -126.348 -126.348 1.64846e-11 -109.172 -143.233 7.3439e-12 -91.7045 -159.827 -1.82254e-12 -73.946 -176.129 -1.09912e-11 -55.8963 -192.14 -2.01421e-11 -37.5554 -207.861 -2.92761e-11 -18.9233 -223.289 -3.84848e-11 2.57842e-10 -238.427 -4.76188e-11 -223.289 18.9233 4.84455e-11 -207.611 -1.76783e-11 4.35053e-11 -191.683 -18.6737 3.86733e-11 -175.505 -37.0978 3.37685e-11 -159.078 -55.2723 2.88246e-11 -142.401 -73.1972 2.39625e-11 -125.474 -90.8725 1.90515e-11 -108.298 -108.298 1.41538e-11 -90.8725 -125.474 5.91925e-12 -73.1972 -142.401 -2.30195e-12 -55.2723 -159.078 -1.05087e-11 -37.0978 -175.505 -1.87861e-11 -18.6737 -191.683 -2.69498e-11 2.11436e-10 -207.611 -3.52156e-11 18.9233 -223.289 -4.34495e-11 -207.861 37.5554 4.49362e-11 -191.683 18.6737 4.02013e-11 -175.297 -2.59917e-11 3.54773e-11 -158.703 -18.4657 3.0733e-11 -141.902 -36.7234 2.59785e-11 -124.892 -54.7731 2.12662e-11 -107.674 -72.6148 1.6522e-11 -90.2485 -90.2485 1.18008e-11 -72.6148 -107.674 4.51592e-12 -54.7731 -124.892 -2.78224e-12 -36.7234 -141.902 -1.00449e-11 -18.4657 -158.703 -1.7375e-11 1.69095e-10 -175.297 -2.46368e-11 18.6737 -191.683 -3.18985e-11 37.5554 -207.861 -3.91913e-11 -192.14 55.8963 4.14907e-11 -175.505 37.0978 3.69176e-11 -158.703 18.4657 3.23538e-11 -141.735 -3.36513e-11 2.77849e-11 -124.601 -18.2993 2.31893e-11 -107.3 -36.4322 1.86109e-11 -89.8325 -54.3987 1.40373e-11 -72.1988 -72.1988 9.45574e-12 -54.3987 -89.8325 3.09616e-12 -36.4322 -107.3 -3.25632e-12 -18.2993 -124.601 -9.60546e-12 1.30612e-10 -141.735 -1.59817e-11 18.4657 -158.703 -2.23522e-11 37.0978 -175.505 -2.86578e-11 55.8963 -192.14 -3.50362e-11 -176.129 73.946 3.80551e-11 -159.078 55.2723 3.36332e-11 -141.902 36.7234 2.9228e-11 -124.601 18.2993 2.47945e-11 -107.175 -4.09841e-11 2.03726e-11 -89.6245 -18.1745 1.59568e-11 -71.9492 -36.2242 1.1538e-11 -54.1491 -54.1491 7.11782e-12 -36.2242 -71.9492 1.68761e-12 -18.1745 -89.6245 -3.72173e-12 9.5838e-11 -107.175 -9.15672e-12 18.2993 -124.601 -1.45693e-11 36.7234 -141.902 -2.00036e-11 55.2723 -159.078 -2.54321e-11 73.946 -176.129 -3.08509e-11 -159.827 91.7045 3.45848e-11 -142.401 73.1972 3.03109e-11 -124.892 54.7731 2.60724e-11 -107.3 36.4322 2.18134e-11 -89.6245 18.1745 1.75496e-11 -71.866 -4.84022e-11 1.32953e-11 -54.0243 -18.0913 9.03803e-12 -36.0994 -36.0994 4.77279e-12 -18.0913 -54.0243 2.83163e-13 6.50004e-11 -71.866 -4.20802e-12 18.1745 -89.6245 -8.69377e-12 36.4322 -107.3 -1.31959e-11 54.7731 -124.892 -1.76835e-11 73.1972 -142.401 -2.21603e-11 91.7045 -159.827 -2.66514e-11 -143.233 109.172 3.11465e-11 -125.474 90.8725 2.70277e-11 -107.674 72.6148 2.2942e-11 -89.8325 54.3987 1.88415e-11 -71.9492 36.2242 1.47358e-11 -54.0243 18.0913 1.06376e-11 -36.0578 -5.63318e-11 6.52917e-12 -18.0497 -18.0497 2.4311e-12 3.75024e-11 -36.0578 -1.12339e-12 18.0913 -54.0243 -4.68743e-12 36.2242 -71.9492 -8.25091e-12 54.3987 -89.8325 -1.17988e-11 72.6148 -107