<?xml version="1.0"?> 
<VTKFile type="StructuredGrid" version="0.1"> 
<StructuredGrid WholeExtent="0 14 0 14 0 29"> 
<Piece Extent="0 14 0 14 0 29"> 
<PointData>
<DataArray type="Float32" Name="hfield" format="ascii" NumberOfComponents="3"> 
39.3559 -3.15594 1.65972 36.9094 1.22586 1.20057 34.5935 4.20535 0.837262 32.3819 6.17773 0.542613 30.2503 7.39149 0.298842 28.1749 8.00568 0.0938196 26.1319 8.12124 -0.0810135 24.0961 7.79857 -0.231868 25.8709 6.33618 -1.02328 27.9083 5.2189 -1.71924 30.2733 4.42416 -2.33604 33.0538 3.94685 -2.88645 36.3722 3.80059 -3.38064 40.4038 4.02231 -3.82682 45.4091 4.68178 -4.23165 37.2192 -6.19063 1.23968 35.3889 -2.86736 0.906445 33.6055 -0.520131 0.636596 31.876 1.09992 0.41433 30.2002 2.15761 0.22869 28.5731 2.76312 0.0718362 26.9864 2.98911 -0.0619861 25.4294 2.88079 -0.177099 27.3595 1.48286 -0.779539 29.6139 0.352316 -1.30539 32.2695 -0.534557 -1.7668 35.4339 -1.18965 -2.17347 39.2612 -1.6124 -2.53329 43.9784 -1.78704 -2.85269 49.9329 -1.67631 -3.13699 35.1582 -9.30108 0.931687 33.6863 -6.70289 0.685235 32.2358 -4.80718 0.482963 30.8246 -3.44896 0.314913 29.4619 -2.51511 0.173895 28.151 -1.92778 0.0545885 26.8923 -1.63436 -0.04703 25.6833 -1.60141 -0.134057 27.681 -3.00356 -0.588343 30.0305 -4.22192 -0.981782 32.8165 -5.28607 -1.32354 36.1599 -6.22041 -1.62106 40.2371 -7.04556 -1.88047 45.3133 -7.77956 -2.10683 51.8045 -8.43909 -2.30438 33.0737 -12.388 0.689953 31.8085 -10.2994 0.50903 30.5664 -8.72614 0.35937 29.3663 -7.55637 0.234446 28.2197 -6.7116 0.129407 27.1333 -6.13686 0.0405741 26.111 -5.79455 -0.0348913 25.1554 -5.66079 -0.0992168 27.1589 -7.10609 -0.434178 29.5158 -8.45229 -0.722119 32.3146 -9.73753 -0.969891 35.6833 -11.0021 -1.18313 39.811 -12.2929 -1.3665 44.9863 -13.6705 -1.52392 51.6707 -15.222 -1.65869 30.913 -15.3988 0.489187 29.7581 -13.6716 0.361486 28.6425 -12.3257 0.255373 27.5815 -11.2855 0.16658 26.5848 -10.4974 0.0918772 25.6591 -9.92327 0.0287696 24.8093 -9.53733 -0.0246963 24.0401 -9.32361 -0.0700733 26.0087 -10.8335 -0.305866 28.312 -12.3268 -0.507256 31.0395 -13.8514 -0.679155 34.3203 -15.4649 -0.825634 38.3468 -17.2431 -0.950099 43.416 -19.2939 -1.05542 50.0099 -21.7842 -1.14402 28.6469 -18.304 0.313873 27.5345 -16.8318 0.232114 26.4879 -15.6413 0.164005 25.5155 -14.6836 0.106945 24.6228 -13.9233 0.0589412 23.8137 -13.3356 0.0184357 23.0922 -12.904 -0.0158029 22.4631 -12.619 -0.0447623 24.3713 -14.2051 -0.195001 26.5803 -15.8526 -0.322684 29.1771 -17.6192 -0.430996 32.2872 -19.5802 -0.522589 36.0978 -21.8403 -0.599694 40.8999 -24.5557 -0.664196 47.1701 -27.976 -0.717702 26.2586 -21.0871 0.153477 25.1351 -19.7902 0.113535 24.1131 -18.6994 0.0802198 23.1914 -17.7856 0.0522951 22.3691 -17.0279 0.0288063 21.6456 -16.4116 0.00900343 21.0222 -15.9277 -0.00771052 20.5018 -15.5722 -0.0218165 22.3353 -17.2402 -0.0949228 24.4232 -19.0416 -0.156861 26.8479 -21.0435 -0.209197 29.7269 -23.3376 -0.253242 33.2347 -26.0558 -0.2901 37.643 -29.3997 -0.320709 43.3988 -33.6976 -0.345867 23.7395 -23.7395 9.13983e-12 22.5556 -22.5556 4.14434e-12 21.519 -21.519 -1.32119e-13 20.6165 -20.6165 -3.58284e-12 19.8381 -19.8381 -6.39309e-12 19.1773 -19.1773 -8.68725e-12 18.631 -18.631 -1.07221e-11 18.1992 -18.1992 -1.2298e-11 19.9508 -19.9508 -8.57617e-12 21.9007 -21.9007 -5.52363e-12 24.1243 -24.1243 -3.0047e-12 26.7274 -26.7274 -1.03792e-12 29.8659 -29.8659 8.93954e-13 33.7808 -33.7808 2.71315e-12 38.8681 -38.8681 4.09276e-12 21.0871 -26.2586 -0.153477 19.7902 -25.1351 -0.113535 18.6994 -24.1131 -0.0802198 17.7856 -23.1914 -0.0522951 17.0279 -22.3691 -0.0288063 16.4116 -21.6456 -0.00900343 15.9277 -21.0222 0.00771052 15.5722 -20.5018 0.0218165 17.2402 -22.3353 0.0949228 19.0416 -24.4232 0.156861 21.0435 -26.8479 0.209197 23.3376 -29.7269 0.253242 26.0558 -33.2347 0.2901 29.3997 -37.643 0.320709 33.6976 -43.3988 0.345867 18.304 -28.6469 -0.313873 16.8318 -27.5345 -0.232114 15.6413 -26.4879 -0.164005 14.6836 -25.5155 -0.106945 13.9233 -24.6228 -0.0589412 13.3356 -23.8137 -0.0184357 12.904 -23.0922 0.0158029 12.619 -22.4631 0.0447623 14.2051 -24.3713 0.195001 15.8526 -26.5803 0.322684 17.6192 -29.1771 0.430996 19.5802 -32.2872 0.522589 21.8403 -36.0978 0.599694 24.5557 -40.8999 0.664196 27.976 -47.1701 0.717702 15.3988 -30.913 -0.489187 13.6716 -29.7581 -0.361486 12.3257 -28.6425 -0.255373 11.2855 -27.5815 -0.16658 10.4974 -26.5848 -0.0918772 9.92327 -25.6591 -0.0287696 9.53733 -24.8093 0.0246963 9.32361 -24.0401 0.0700733 10.8335 -26.0087 0.305866 12.3268 -28.312 0.507256 13.8514 -31.0395 0.679155 15.4649 -34.3203 0.825634 17.2431 -38.3468 0.950099 19.2939 -43.416 1.05542 21.7842 -50.0099 1.14402 12.388 -33.0737 -0.689953 10.2994 -31.8085 -0.50903 8.72614 -30.5664 -0.35937 7.55637 -29.3663 -0.234446 6.7116 -28.2197 -0.129407 6.13686 -27.1333 -0.0405741 5.79455 -26.111 0.0348913 5.66079 -25.1554 0.0992168 7.10609 -27.1589 0.434178 8.45229 -29.5158 0.722119 9.73753 -32.3146 0.969891 11.0021 -35.6833 1.18313 12.2929 -39.811 1.3665 13.6705 -44.9863 1.52392 15.222 -51.6707 1.65869 9.30108 -35.1582 -0.931687 6.70289 -33.6863 -0.685235 4.80718 -32.2358 -0.482963 3.44896 -30.8246 -0.314913 2.51511 -29.4619 -0.173895 1.92778 -28.151 -0.0545885 1.63436 -26.8923 0.04703 1.60141 -25.6833 0.134057 3.00356 -27.681 0.588343 4.22192 -30.0305 0.981782 5.28607 -32.8165 1.32354 6.22041 -36.1599 1.62106 7.04556 -40.2371 1.88047 7.77956 -45.3133 2.10683 8.43909 -51.8045 2.30438 6.19063 -37.2192 -1.23968 2.86736 -35.3889 -0.906445 0.520131 -33.6055 -0.636596 -1.09992 -31.876 -0.41433 -2.15761 -30.2002 -0.22869 -2.76312 -28.5731 -0.0718362 -2.98911 -26.9864 0.0619861 -2.88079 -25.4294 0.177099 -1.48286 -27.3595 0.779539 -0.352316 -29.6139 1.30539 0.534557 -32.2695 1.7668 1.18965 -35.4339 2.17347 1.6124 -39.2612 2.53329 1.78704 -43.9784 2.85269 1.67631 -49.9329 3.13699 3.15594 -39.3559 -1.65972 -1.22586 -36.9094 -1.20057 -4.20535 -34.5935 -0.837262 -6.17773 -32.3819 -0.542613 -7.39149 -30.2503 -0.298842 -8.00568 -28.1749 -0.0938196 -8.12124 -26.1319 0.0810135 -7.79857 -24.0961 0.231868 -6.33618 -25.8709 1.02328 -5.2189 -27.9083 1.71924 -4.42416 -30.2733 2.33604 -3.94685 -33.0538 2.88645 -3.80059 -36.3722 3.38064 -4.02231 -40.4038 3.82682 -4.68178 -45.4091 4.23165 168.04 7.26069 3.42783 183.236 8.29096 2.37118 198.201 8.56653 1.77174 213.08 8.53566 1.42259 228.023 8.49032 1.21118 243.185 8.63405 1.07874 258.732 9.11966 0.998617 274.845 10.0719 0.964352 291.163 10.3145 2.23348 308.473 9.59537 2.9586 327.034 8.23203 3.17275 347.155 6.47145 2.90544 369.208 4.51213 2.18071 393.654 2.52058 1.01543 421.075 0.64454 -0.58257 154.561 -4.30356 0.896645 170.844 -7.50253 0.43988 186.621 -10.6322 0.233764 202.07 -13.5322 0.155378 217.362 -16.0946 0.138717 232.669 -18.2423 0.152021 248.167 -19.9155 0.184911 264.044 -21.0628 0.240922 282.872 -23.7055 1.22981 302.364 -26.7813 1.79953 322.826 -30.0988 1.98558 344.607 -33.5095 1.82305 368.118 -36.8951 1.34504 393.859 -40.158 0.581651 422.456 -43.2125 -0.440766 142.124 -16.9095 -0.419929 158.835 -23.2585 -0.571846 174.888 -29.0845 -0.580514 190.458 -34.3679 -0.525151 205.718 -39.1019 -0.447036 220.84 -43.2858 -0.36375 235.999 -46.9219 -0.277651 251.379 -50.0122 -0.180965 271.629 -55.5452 0.575054 292.285 -61.1517 1.01303 313.675 -66.7448 1.16779 336.166 -72.2657 1.07528 360.185 -77.6779 0.77142 386.251 -82.9629 0.291581 415.013 -88.1175 -0.32949 130.133 -29.9617 -0.987406 146.874 -38.7489 -0.991954 162.851 -46.758 -0.91327 178.233 -54.0432 -0.804359 193.187 -60.6559 -0.691864 207.879 -66.6446 -0.58554 222.479 -72.0545 -0.484086 237.164 -76.9277 -0.378729 257.971 -85.2491 0.182676 278.977 -93.4128 0.509077 300.511 -101.42 0.631804 322.94 -109.293 0.58389 346.696 -117.076 0.399264 372.297 -124.833 0.11255 400.395 -132.657 -0.240623 118.258 -43.1289 -1.07801 134.754 -53.8503 -1.02458 150.406 -63.654 -0.923261 165.375 -72.6344 -0.809238 179.817 -80.8785 -0.699606 193.894 -88.4672 -0.599671 207.766 -95.4771 -0.506917 221.603 -101.981 -0.413489 242.279 -112.918 -0.0171601 262.981 -123.565 0.21378 284.028 -133.995 0.304857 305.779 -144.305 0.283277 328.65 -154.615 0.177388 353.147 -165.076 0.0166584 379.904 -175.879 -0.167857 106.305 -56.2187 -0.866319 122.346 -68.4986 -0.806918 137.478 -79.7925 -0.721477 151.852 -90.2178 -0.631675 165.619 -99.8841 -0.547758 178.932 -108.895 -0.472445 191.943 -117.35 -0.403414 204.811 -125.347 -0.334886 224.801 -138.68 -0.0822105 244.675 -151.663 0.0652165 264.732 -164.435 0.125375 285.31 -177.154 0.117533 306.801 -190.014 0.0619249 329.681 -203.245 -0.020204 354.551 -217.142 -0.10617 94.1627 -69.1197 -0.475104 109.563 -82.6656 -0.438834 124.002 -95.2042 -0.39114 137.625 -106.867 -0.342389 150.577 -117.777 -0.297398 162.998 -128.056 -0.257302 175.034 -137.821 -0.220764 186.832 -147.189 -0.184742 205.68 -162.663 -0.061819 224.3 -177.784 0.00995107 242.964 -192.745 0.0398457 261.977 -207.763 0.0378328 281.695 -223.092 0.0144197 302.553 -239.042 -0.0193034 325.096 -256.002 -0.0514169 81.7738 -81.7738 -9.9476e-14 96.3483 -96.3483 -1.02968e-12 109.927 -109.927 -1.85574e-12 122.648 -122.648 -2.39675e-12 134.649 -134.649 -2.75868e-12 146.061 -146.061 -2.89546e-12 157.016 -157.016 -3.02691e-12 167.647 -167.647 -3.06244e-12 184.973 -184.973 -2.43716e-12 201.989 -201.989 -1.94689e-12 218.933 -218.933 -1.62004e-12 236.069 -236.069 -1.09424e-12 253.709 -253.709 -9.23706e-13 272.229 -272.229 -7.53175e-13 292.104 -292.104 -6.48869e-13 69.1197 -94.1627 0.475104 82.6656 -109.563 0.438834 95.2042 -124.002 0.39114 106.867 -137.625 0.342389 117.777 -150.577 0.297398 128.056 -162.998 0.257302 137.821 -175.034 0.220764 147.189 -186.832 0.184742 162.663 -205.68 0.061819 177.784 -224.3 -0.00995107 192.745 -242.964 -0.0398457 207.763 -261.977 -0.0378328 223.092 -281.695 -0.0144197 239.042 -302.553 0.0193034 256.002 -325.096 0.0514169 56.2187 -106.305 0.866319 68.4986 -122.346 0.806918 79.7925 -137.478 0.721477 90.2178 -151.852 0.631675 99.8841 -165.619 0.547758 108.895 -178.932 0.472445 117.35 -191.943 0.403414 125.347 -204.811 0.334886 138.68 -224.801 0.0822105 151.663 -244.675 -0.0652165 164.435 -264.732 -0.125375 177.154 -285.31 -0.117533 190.014 -306.801 -0.0619249 203.245 -329.681 0.020204 217.142 -354.551 0.10617 43.1289 -118.258 1.07801 53.8503 -134.754 1.02458 63.654 -150.406 0.923261 72.6344 -165.375 0.809238 80.8785 -179.817 0.699606 88.4672 -193.894 0.599671 95.4771 -207.766 0.506917 101.981 -221.603 0.413489 112.918 -242.279 0.0171601 123.565 -262.981 -0.21378 133.995 -284.028 -0.304857 144.305 -305.779 -0.283277 154.615 -328.65 -0.177388 165.076 -353.147 -0.0166584 175.879 -379.904 0.167857 29.9617 -130.133 0.987406 38.7489 -146.874 0.991954 46.758 -162.851 0.91327 54.0432 -178.233 0.804359 60.6559 -193.187 0.691864 66.6446 -207.879 0.58554 72.0545 -222.479 0.484086 76.9277 -237.164 0.378729 85.2491 -257.971 -0.182676 93.4128 -278.977 -0.509077 101.42 -300.511 -0.631804 109.293 -322.94 -0.58389 117.076 -346.696 -0.399264 124.833 -372.297 -0.11255 132.657 -400.395 0.240623 16.9095 -142.124 0.419929 23.2585 -158.835 0.571846 29.0845 -174.888 0.580514 34.3679 -190.458 0.525151 39.1019 -205.718 0.447036 43.2858 -220.84 0.36375 46.9219 -235.999 0.277651 50.0122 -251.379 0.180965 55.5452 -271.629 -0.575054 61.1517 -292.285 -1.01303 66.7448 -313.675 -1.16779 72.2657 -336.166 -1.07528 77.6779 -360.185 -0.77142 82.9629 -386.251 -0.291581 88.1175 -415.013 0.32949 4.30356 -154.561 -0.896645 7.50253 -170.844 -0.43988 10.6322 -186.621 -0.233764 13.5322 -202.07 -0.155378 16.0946 -217.362 -0.138717 18.2423 -232.669 -0.152021 19.9155 -248.167 -0.184911 21.0628 -264.044 -0.240922 23.7055 -282.872 -1.22981 26.7813 -302.364 -1.79953 30.0988 -322.826 -1.98558 33.5095 -344.607 -1.82305 36.8951 -368.118 -1.34504 40.158 -393.859 -0.581651 43.2125 -422.456 0.440766 -7.26069 -168.04 -3.42783 -8.29096 -183.236 -2.37118 -8.56653 -198.201 -1.77174 -8.53566 -213.08 -1.42259 -8.49032 -228.023 -1.21118 -8.63405 -243.185 -1.07874 -9.11966 -258.732 -0.998617 -10.0719 -274.845 -0.964352 -10.3145 -291.163 -2.23348 -9.59537 -308.473 -2.9586 -8.23203 -327.034 -3.17275 -6.47145 -347.155 -2.90544 -4.51213 -369.208 -2.18071 -2.52058 -393.654 -1.01543 -0.64454 -421.075 0.58257 277.171 11.6942 12.1972 314.494 9.76756 3.92045 351.044 5.85621 -0.477241 386.9 1.58238 -2.85711 422.246 -1.99996 -4.20194 457.361 -4.13334 -5.03904 492.616 -4.22295 -5.63532 528.475 -1.7578 -6.09656 545.112 3.14138 2.02677 563.461 5.04099 7.02065 584.113 5.35704 9.10328 607.78 5.18503 8.44441 635.347 5.42169 5.15291 667.956 6.86259 -0.739564 707.129 10.2921 -9.30251 257.087 -9.4887 9.32849 294.976 -15.7017 2.69913 331.617 -23.1742 -0.901864 367.059 -30.7444 -2.83808 401.413 -37.6006 -3.87857 434.86 -43.1376 -4.45804 467.654 -46.8804 -4.80699 500.116 -48.4352 -5.02295 524.486 -50.4035 1.5138 548.978 -53.9213 5.42721 574.183 -57.9258 6.94444 600.748 -61.5957 6.28331 629.415 -64.269 3.64265 661.071 -65.3758 -0.806213 696.822 -64.3799 -6.92789 236.94 -30.6083 7.09143 274.732 -41.058 1.83253 311.047 -52.1889 -1.07299 345.846 -63.1341 -2.62639 379.145 -73.2499 -3.4236 411.028 -82.0426 -3.81655 441.638 -89.125 -3.99966 471.183 -94.187 -4.06016 501.329 -102.889 1.09748 530.253 -111.831 4.11014 558.461 -120.231 5.19596 586.478 -127.496 4.58512 614.877 -133.161 2.51064 644.296 -136.852 -0.798055 675.488 -138.238 -5.1192 216.717 -51.6514 5.27633 253.791 -66.2309 1.21626 289.326 -81.0253 -1.05636 323.178 -95.3499 -2.2659 355.265 -108.673 -2.86249 385.577 -120.577 -3.12173 414.164 -130.739 -3.20111 441.134 -138.907 -3.17486 475.23 -154.027 0.766955 507.03 -168.223 3.01949 536.915 -180.929 3.77642 565.27 -191.726 3.25264 592.5 -200.305 1.67513 619.039 -206.438 -0.723241 645.364 -209.95 -3.70743 196.409 -72.6097 3.74564 232.189 -91.1547 0.775985 266.477 -109.533 -0.902529 299.031 -127.168 -1.79291 329.683 -143.599 -2.21832 358.337 -158.463 -2.38224 384.962 -171.48 -2.40412 409.588 -182.438 -2.34243 445.924 -203.476 0.508677 479.18 -222.592 2.10831 509.596 -239.377 2.61306 537.425 -253.542 2.20157 562.928 -264.892 1.06621 586.377 -273.302 -0.592782 608.063 -278.698 -2.57129 176.011 -93.4781 2.40265 209.964 -115.767 0.455545 242.545 -137.57 -0.652471 273.433 -158.375 -1.23892 302.384 -177.769 -1.5127 329.232 -195.424 -1.60801 353.882 -211.094 -1.60518 376.3 -224.599 -1.54459 413.284 -250.874 0.30678 446.697 -274.417 1.33117 476.65 -294.936 1.63845 503.277 -312.241 1.35586 526.726 -326.214 0.621704 547.157 -336.799 -0.419446 564.736 -343.985 -1.62018 155.52 -114.254 1.17415 187.16 -140.01 0.209817 217.598 -165.006 -0.341146 246.45 -188.775 -0.632393 273.415 -210.937 -0.766463 298.274 -231.197 -0.810037 320.878 -249.337 -0.803496 341.144 -265.205 -0.76746 377.305 -295.858 0.143555 409.698 -323.184 0.643278 438.322 -346.989 0.788296 463.211 -367.156 0.644649 484.428 -383.63 0.284394 502.057 -396.402 -0.217052 516.195 -405.498 -0.782958 134.934 -134.934 -5.39657e-12 163.825 -163.825 -4.08412e-12 191.719 -191.719 -2.91722e-12 218.186 -218.186 -2.20446e-12 242.883 -242.883 -1.38911e-12 265.546 -265.546 -7.31859e-13 285.991 -285.991 -1.91847e-13 304.094 -304.094 1.27898e-13 338.095 -338.095 -7.81597e-13 368.417 -368.417 -1.60583e-12 394.956 -394.956 -1.9611e-12 417.668 -417.668 -2.37321e-12 436.552 -436.552 -2.4869e-12 451.641 -451.641 -2.67164e-12 462.991 -462.991 -2.66052e-12 114.254 -155.52 -1.17415 140.01 -187.16 -0.209817 165.006 -217.598 0.341146 188.775 -246.45 0.632393 210.937 -273.415 0.766463 231.197 -298.274 0.810037 249.337 -320.878 0.803496 265.205 -341.144 0.76746 295.858 -377.305 -0.143555 323.184 -409.698 -0.643278 346.989 -438.322 -0.788296 367.156 -463.211 -0.644649 383.63 -484.428 -0.284394 396.402 -502.057 0.217052 405.498 -516.195 0.782958 93.4781 -176.011 -2.40265 115.767 -209.964 -0.455545 137.57 -242.545 0.652471 158.375 -273.433 1.23892 177.769 -302.384 1.5127 195.424 -329.232 1.60801 211.094 -353.882 1.60518 224.599 -376.3 1.54459 250.874 -413.284 -0.30678 274.417 -446.697 -1.33117 294.936 -476.65 -1.63845 312.241 -503.277 -1.35586 326.214 -526.726 -0.621704 336.799 -547.157 0.419446 343.985 -564.736 1.62018 72.6097 -196.409 -3.74564 91.1547 -232.189 -0.775985 109.533 -266.477 0.902529 127.168 -299.031 1.79291 143.599 -329.683 2.21832 158.463 -358.337 2.38224 171.48 -384.962 2.40412 182.438 -409.588 2.34243 203.476 -445.924 -0.508677 222.592 -479.18 -2.10831 239.377 -509.596 -2.61306 253.542 -537.425 -2.20157 264.892 -562.928 -1.06621 273.302 -586.377 0.592782 278.698 -608.063 2.57129 51.6514 -216.717 -5.27633 66.2309 -253.791 -1.21626 81.0253 -289.326 1.05636 95.3499 -323.178 2.2659 108.673 -355.265 2.86249 120.577 -385.577 3.12173 130.739 -414.164 3.20111 138.907 -441.134 3.17486 154.027 -475.23 -0.766955 168.223 -507.03 -3.01949 180.929 -536.915 -3.77642 191.726 -565.27 -3.25264 200.305 -592.5 -1.67513 206.438 -619.039 0.723241 209.95 -645.364 3.70743 30.6083 -236.94 -7.09143 41.058 -274.732 -1.83253 52.1889 -311.047 1.07299 63.1341 -345.846 2.62639 73.2499 -379.145 3.4236 82.0426 -411.028 3.81655 89.125 -441.638 3.99966 94.187 -471.183 4.06016 102.889 -501.329 -1.09748 111.831 -530.253 -4.11014 120.231 -558.461 -5.19596 127.496 -586.478 -4.58512 133.161 -614.877 -2.51064 136.852 -644.296 0.798055 138.238 -675.488 5.1192 9.4887 -257.087 -9.32849 15.7017 -294.976 -2.69913 23.1742 -331.617 0.901864 30.7444 -367.059 2.83808 37.6006 -401.413 3.87857 43.1376 -434.86 4.45804 46.8804 -467.654 4.80699 48.4352 -500.116 5.02295 50.4035 -524.486 -1.5138 53.9213 -548.978 -5.42721 57.9258 -574.183 -6.94444 61.5957 -600.748 -6.28331 64.269 -629.415 -3.64265 65.3758 -661.071 0.806213 64.3799 -696.822 6.92789 -11.6942 -277.171 -12.1972 -9.76756 -314.494 -3.92045 -5.85621 -351.044 0.477241 -1.58238 -386.9 2.85711 1.99996 -422.246 4.20194 4.13334 -457.361 5.03904 4.22295 -492.616 5.63532 1.7578 -528.475 6.09656 -3.14138 -545.112 -2.02677 -5.04099 -563.461 -7.02065 -5.35704 -584.113 -9.10328 -5.18503 -607.78 -8.44441 -5.42169 -635.347 -5.15291 -6.86259 -667.956 0.739564 -10.2921 -707.129 9.30251 329.052 -18.3948 15.1989 363.376 -1.41897 4.77827 398.428 4.858 -0.188857 434.394 5.74092 -2.48214 471.467 4.22432 -3.52416 509.859 2.21019 -4.07561 549.8 1.04338 -4.53663 591.546 1.77579 -5.09083 612.017 5.27836 4.39822 634.182 7.06398 10.3636 658.244 8.20483 13.0156 684.438 9.57522 12.5117 713.043 11.931 8.96699 744.391 15.9669 2.46079 778.878 22.361 -6.96028 299.806 -33.5285 11.8518 337.298 -27.3173 3.39734 373.993 -28.2169 -0.84736 410.409 -32.7697 -2.91417 446.918 -38.8977 -3.90268 483.84 -45.2266 -4.42377 521.486 -50.7666 -4.80722 560.187 -54.7444 -5.20725 585.316 -56.9757 2.45278 611.703 -60.0937 7.22169 639.817 -63.2662 9.32564 670.211 -65.8079 8.96353 703.562 -67.1188 6.30853 740.728 -66.6327 1.50635 782.829 -63.7688 -5.32977 272.529 -50.6311 9.16102 311.543 -53.3905 2.39131 348.953 -60.7227 -1.14759 385.337 -70.3478 -2.94246 421.104 -80.8266 -3.83377 456.596 -91.1806 -4.30319 492.143 -100.701 -4.61664 528.103 -108.845 -4.90091 556.324 -116.454 1.16847 585.334 -124.33 4.91466 615.774 -131.899 6.55586 648.421 -138.714 6.29937 684.264 -144.411 4.33841 724.618 -148.681 0.847132 771.295 -151.229 -4.02709 246.671 -69.1531 6.91136 285.947 -79.5216 1.64983 323.261 -92.6166 -1.1868 359.122 -106.929 -2.67038 393.894 -121.471 -3.42759 427.89 -135.562 -3.82655 461.421 -148.715 -4.07432 494.839 -160.577 -4.27147 524.825 -173.135 0.388612 555.146 -185.505 3.24403 586.532 -197.372 4.4875 619.9 -208.548 4.31017 656.454 -218.962 2.89672 697.85 -228.655 0.419638 746.477 -237.797 -2.96796 221.893 -88.7543 4.96039 260.402 -105.635 1.09403 296.888 -123.867 -1.0383 331.728 -142.461 -2.17876 365.203 -160.756 -2.77233 397.564 -178.295 -3.08534 429.078 -194.768 -3.26985 460.063 -209.977 -3.40084 490.676 -227.001 -0.0153242 521.218 -243.517 2.04708 552.446 -259.455 2.94093 585.333 -274.893 2.82352 621.193 -290.075 1.84999 661.889 -305.454 0.168386 710.195 -321.785 -2.08573 197.981 -109.221 3.20717 234.836 -131.681 0.664434 269.815 -154.449 -0.759921 303.14 -176.902 -1.53342 334.982 -198.617 -1.94129 365.514 -219.315 -2.15657 394.943 -238.827 -2.27909 423.536 -257.084 -2.35865 453.786 -278.037 -0.152276 483.637 -298.285 1.18615 513.812 -317.979 1.76422 545.267 -337.449 1.69317 579.329 -357.253 1.084 617.915 -378.269 0.044062 663.952 -401.893 -1.32638 174.804 -130.424 1.57486 209.202 -157.631 0.313368 242.034 -184.345 -0.399738 273.352 -210.215 -0.790429 303.207 -235.004 -0.998005 331.681 -258.573 -1.10763 358.905 -280.871 -1.16876 385.083 -301.935 -1.20626 414.1 -326.234 -0.117976 442.483 -349.742 0.54051 470.87 -372.808 0.824327 500.139 -395.985 0.790933 531.531 -420.113 0.498045 566.874 -446.472 0.00187009 609.001 -477.068 -0.644474 152.293 -152.293 -4.83635e-12 183.471 -183.471 -3.74435e-12 213.543 -213.543 -2.88158e-12 242.373 -242.373 -2.07723e-12 269.877 -269.877 -1.56275e-12 296.035 -296.035 -1.01164e-12 320.893 -320.893 -4.45866e-13 344.579 -344.579 -2.55795e-13 371.588 -371.588 -9.76996e-13 397.829 -397.829 -1.5099e-12 423.816 -423.816 -1.78346e-12 450.289 -450.289 -1.95399e-12 478.322 -478.322 -1.78346e-12 509.521 -509.521 -1.55609e-12 546.396 -546.396 -1.21512e-12 130.424 -174.804 -1.57486 157.631 -209.202 -0.313368 184.345 -242.034 0.399738 210.215 -273.352 0.790429 235.004 -303.207 0.998005 258.573 -331.681 1.10763 280.871 -358.905 1.16876 301.935 -385.083 1.20626 326.234 -414.1 0.117976 349.742 -442.483 -0.54051 372.808 -470.87 -0.824327 395.985 -500.139 -0.790933 420.113 -531.531 -0.498045 446.472 -566.874 -0.00187009 477.068 -609.001 0.644474 109.221 -197.981 -3.20717 131.681 -234.836 -0.664434 154.449 -269.815 0.759921 176.902 -303.14 1.53342 198.617 -334.982 1.94129 219.315 -365.514 2.15657 238.827 -394.943 2.27909 257.084 -423.536 2.35865 278.037 -453.786 0.152276 298.285 -483.637 -1.18615 317.979 -513.812 -1.76422 337.449 -545.267 -1.69317 357.253 -579.329 -1.084 378.269 -617.915 -0.044062 401.893 -663.952 1.32638 88.7543 -221.893 -4.96039 105.635 -260.402 -1.09403 123.867 -296.888 1.0383 142.461 -331.728 2.17876 160.756 -365.203 2.77233 178.295 -397.564 3.08534 194.768 -429.078 3.26985 209.977 -460.063 3.40084 227.001 -490.676 0.0153242 243.517 -521.218 -2.04708 259.455 -552.446 -2.94093 274.893 -585.333 -2.82352 290.075 -621.193 -1.84999 305.454 -661.889 -0.168386 321.785 -710.195 2.08573 69.1531 -246.671 -6.91136 79.5216 -285.947 -1.64983 92.6166 -323.261 1.1868 106.929 -359.122 2.67038 121.471 -393.894 3.42759 135.562 -427.89 3.82655 148.715 -461.421 4.07432 160.577 -494.839 4.27147 173.135 -524.825 -0.388612 185.505 -555.146 -3.24403 197.372 -586.532 -4.4875 208.548 -619.9 -4.31017 218.962 -656.454 -2.89672 228.655 -697.85 -0.419638 237.797 -746.477 2.96796 50.6311 -272.529 -9.16102 53.3905 -311.543 -2.39131 60.7227 -348.953 1.14759 70.3478 -385.337 2.94246 80.8266 -421.104 3.83377 91.1806 -456.596 4.30319 100.701 -492.143 4.61664 108.845 -528.103 4.90091 116.454 -556.324 -1.16847 124.33 -585.334 -4.91466 131.899 -615.774 -6.55586 138.714 -648.421 -6.29937 144.411 -684.264 -4.33841 148.681 -724.618 -0.847132 151.229 -771.295 4.02709 33.5285 -299.806 -11.8518 27.3173 -337.298 -3.39734 28.2169 -373.993 0.84736 32.7697 -410.409 2.91417 38.8977 -446.918 3.90268 45.2266 -483.84 4.42377 50.7666 -521.486 4.80722 54.7444 -560.187 5.20725 56.9757 -585.316 -2.45278 60.0937 -611.703 -7.22169 63.2662 -639.817 -9.32564 65.8079 -670.211 -8.96353 67.1188 -703.562 -6.30853 66.6327 -740.728 -1.50635 63.7688 -782.829 5.32977 18.3948 -329.052 -15.1989 1.41897 -363.376 -4.77827 -4.858 -398.428 0.188857 -5.74092 -434.394 2.48214 -4.22432 -471.467 3.52416 -2.21019 -509.859 4.07561 -1.04338 -549.8 4.53663 -1.77579 -591.546 5.09083 -5.27836 -612.017 -4.39822 -7.06398 -634.182 -10.3636 -8.20483 -658.244 -13.0156 -9.57522 -684.438 -12.5117 -11.931 -713.043 -8.96699 -15.9669 -744.391 -2.46079 -22.361 -778.878 6.96028 350.596 -21.7677 18.2197 390.284 -3.06381 5.37276 430.514 3.59939 -0.574741 471.428 4.36931 -3.1966 513.174 2.64931 -4.27713 555.91 0.574041 -4.74889 599.8 -0.363173 -5.08764 645.024 0.990329 -5.49762 668.481 4.31025 5.33496 693.198 5.91712 11.977 719.304 7.0772 14.7403 746.945 8.81373 13.8925 776.286 11.9968 9.67186 807.514 17.4051 2.29765 840.842 25.7713 -8.02179 319.27 -37.4172 14.2917 362.364 -30.7494 3.85357 404.338 -32.0676 -1.24662 445.722 -37.3453 -3.62948 486.869 -44.2025 -4.6803 528.06 -51.0823 -5.15208 569.558 -56.8723 -5.43988 611.633 -60.713 -5.71778 640.277 -63.6888 3.04592 669.641 -67.4091 8.36531 700.13 -70.8811 10.5592 732.202 -73.2937 9.92698 766.397 -73.9467 6.7521 803.374 -72.1957 1.30385 843.958 -67.4016 -6.16291 290.107 -55.2293 11.101 334.778 -58.6112 2.73584 377.465 -67.1078 -1.52686 418.771 -78.0481 -3.60893 459.092 -89.769 -4.57274 498.742 -101.148 -5.01453 538.012 -111.376 -5.25475 577.211 -119.836 -5.43819 609.321 -128.766 1.51693 641.605 -137.697 5.70066 674.649 -145.92 7.4124 709.134 -152.878 6.94737 745.901 -158.115 4.59439 786.025 -161.228 0.633073 830.929 -161.835 -4.66932 262.513 -74.611 8.40787 307.361 -86.5331 1.90316 349.857 -101.48 -1.51972 390.527 -117.671 -3.24839 429.723 -133.949 -4.077 467.729 -149.52 -4.4627 504.823 -163.813 -4.65617 541.314 -176.413 -4.77324 575.414 -190.864 0.573195 609.181 -204.747 3.76465 643.297 -217.638 5.06139 678.587 -229.253 4.72771 716.101 -239.423 3.02714 757.231 -248.078 0.218241 803.908 -255.237 -3.44883 236.12 -95.1931 6.05273 280.004 -114.439 1.27151 321.492 -135.154 -1.30472 360.966 -156.157 -2.63784 398.683 -176.657 -3.29275 434.867 -196.106 -3.60099 469.752 -214.128 -3.74728 503.617 -230.469 -3.81854 538.429 -249.927 0.068796 572.474 -268.403 2.37505 606.46 -285.735 3.30691 641.273 -301.913 3.07818 678.077 -317.078 1.90454 718.461 -331.542 -0.000428673 764.704 -345.839 -2.42775 210.695 -116.744 3.92184 252.631 -142.28 0.77696 292.357 -168.105 -0.945346 330.077 -193.457 -1.85145 365.933 -217.817 -2.30391 400.063 -240.83 -2.51848 432.638 -262.271 -2.61671 463.889 -282.022 -2.6566 498.295 -305.908 -0.121831 531.596 -328.532 1.37525 564.465 -349.972 1.97773 597.779 -370.475 1.83524 632.718 -390.486 1.09984 670.931 -410.713 -0.0769932 714.84 -432.252 -1.54572 186.095 -139.12 1.92827 225.194 -170.026 0.367926 262.447 -200.313 -0.494759 297.865 -229.531 -0.952995 331.457 -257.369 -1.18397 363.263 -283.627 -1.29398 393.376 -308.204 -1.34333 421.964 -331.096 -1.36104 454.976 -358.765 -0.110397 486.656 -385.021 0.62625 517.594 -410.151 0.921978 548.589 -434.629 0.853688 580.744 -459.178 0.499814 615.634 -484.87 -0.0612196 655.604 -513.339 -0.751585 162.245 -162.245 -4.39027e-12 197.664 -197.664 -3.4367e-12 231.764 -231.764 -2.6994e-12 264.343 -264.343 -2.07656e-12 295.261 -295.261 -1.42464e-12 324.448 -324.448 -1.07292e-12 351.906 -351.906 -7.78044e-13 377.726 -377.726 -4.54747e-13 408.462 -408.462 -9.87654e-13 437.763 -437.763 -1.33582e-12 466.087 -466.087 -1.42819e-12 494.097 -494.097 -1.45661e-12 522.738 -522.738 -1.39266e-12 553.384 -553.384 -1.19371e-12 588.106 -588.106 -8.8937e-13 139.12 -186.095 -1.92827 170.026 -225.194 -0.367926 200.313 -262.447 0.494759 229.531 -297.865 0.952995 257.369 -331.457 1.18397 283.627 -363.263 1.29398 308.204 -393.376 1.34333 331.096 -421.964 1.36104 358.765 -454.976 0.110397 385.021 -486.656 -0.62625 410.151 -517.594 -0.921978 434.629 -548.589 -0.853688 459.178 -580.744 -0.499814 484.87 -615.634 0.0612196 513.339 -655.604 0.751585 116.744 -210.695 -3.92184 142.28 -252.631 -0.77696 168.105 -292.357 0.945346 193.457 -330.077 1.85145 217.817 -365.933 2.30391 240.83 -400.063 2.51848 262.271 -432.638 2.61671 282.022 -463.889 2.6566 305.908 -498.295 0.121831 328.532 -531.596 -1.37525 349.972 -564.465 -1.97773 370.475 -597.779 -1.83524 390.486 -632.718 -1.09984 410.713 -670.931 0.0769932 432.252 -714.84 1.54572 95.1931 -236.12 -6.05273 114.439 -280.004 -1.27151 135.154 -321.492 1.30472 156.157 -360.966 2.63784 176.657 -398.683 3.29275 196.106 -434.867 3.60099 214.128 -469.752 3.74728 230.469 -503.617 3.81854 249.927 -538.429 -0.068796 268.403 -572.474 -2.37505 285.735 -606.46 -3.30691 301.913 -641.273 -3.07818 317.078 -678.077 -1.90454 331.542 -718.461 0.000428673 345.839 -764.704 2.42775 74.611 -262.513 -8.40787 86.5331 -307.361 -1.90316 101.48 -349.857 1.51972 117.671 -390.527 3.24839 133.949 -429.723 4.077 149.52 -467.729 4.4627 163.813 -504.823 4.65617 176.413 -541.314 4.77324 190.864 -575.414 -0.573195 204.747 -609.181 -3.76465 217.638 -643.297 -5.06139 229.253 -678.587 -4.72771 239.423 -716.101 -3.02714 248.078 -757.231 -0.218241 255.237 -803.908 3.44883 55.2293 -290.107 -11.101 58.6112 -334.778 -2.73584 67.1078 -377.465 1.52686 78.0481 -418.771 3.60893 89.769 -459.092 4.57274 101.148 -498.742 5.01453 111.376 -538.012 5.25475 119.836 -577.211 5.43819 128.766 -609.321 -1.51693 137.697 -641.605 -5.70066 145.92 -674.649 -7.4124 152.878 -709.134 -6.94737 158.115 -745.901 -4.59439 161.228 -786.025 -0.633073 161.835 -830.929 4.66932 37.4172 -319.27 -14.2917 30.7494 -362.364 -3.85357 32.0676 -404.338 1.24662 37.3453 -445.722 3.62948 44.2025 -486.869 4.6803 51.0823 -528.06 5.15208 56.8723 -569.558 5.43988 60.713 -611.633 5.71778 63.6888 -640.277 -3.04592 67.4091 -669.641 -8.36531 70.8811 -700.13 -10.5592 73.2937 -732.202 -9.92698 73.9467 -766.397 -6.7521 72.1957 -803.374 -1.30385 67.4016 -843.958 6.16291 21.7677 -350.596 -18.2197 3.06381 -390.284 -5.37276 -3.59939 -430.514 0.574741 -4.36931 -471.428 3.1966 -2.64931 -513.174 4.27713 -0.574041 -555.91 4.74889 0.363173 -599.8 5.08764 -0.990329 -645.024 5.49762 -4.31025 -668.481 -5.33496 -5.91712 -693.198 -11.977 -7.0772 -719.304 -14.7403 -8.81373 -746.945 -13.8925 -11.9968 -776.286 -9.67186 -17.4051 -807.514 -2.29765 -25.7713 -840.842 8.02179 369.691 -22.6907 21.4499 414.121 -2.2884 6.03523 458.895 4.70208 -0.919714 504.103 5.29927 -3.86527 549.842 3.30985 -4.97142 596.209 1.08819 -5.34929 643.306 0.261144 -5.55157 691.239 2.06593 -5.803 716.887 5.04363 6.32095 743.323 6.30024 13.5948 770.618 7.27352 16.4422 798.846 9.10982 15.2485 828.091 12.7642 10.3792 858.439 19.0669 2.19169 889.989 28.7696 -8.95507 336.739 -39.3106 16.9022 384.82 -32.0758 4.36621 431.453 -33.7474 -1.61293 477.172 -39.7015 -4.30743 522.306 -