<?xml version="1.0"?> 
<VTKFile type="StructuredGrid" version="0.1"> 
<StructuredGrid WholeExtent="0 14 0 14 0 29"> 
<Piece Extent="0 14 0 14 0 29"> 
<PointData>
<DataArray type="Float32" Name="hfield" format="ascii" NumberOfComponents="3"> 
-147.755 7.18193 -0.0726091 -152.735 -2.30468 -0.0362521 -158.323 -7.69043 -0.00844309 -164.594 -10.3706 0.0135154 -171.64 -11.1792 0.031294 -179.574 -10.6342 0.0459824 -188.539 -9.0627 0.0583219 -198.715 -6.66995 0.0688342 -196.8 -7.85683 -0.0740312 -195.611 -8.38442 -0.19847 -195.218 -8.25204 -0.307832 -195.722 -7.42337 -0.404699 -197.277 -5.82077 -0.491099 -200.101 -3.31282 -0.568639 -204.525 0.308786 -0.638617 -135.407 14.915 -0.0550134 -142.544 10.7308 -0.0277958 -149.881 9.04022 -0.00652172 -157.609 9.04981 0.0104841 -165.9 10.2676 0.0243222 -174.931 12.3836 0.0357451 -184.89 15.2039 0.0452851 -196.001 18.6138 0.0533294 -194.725 17.1744 -0.0571799 -194.299 16.3199 -0.152716 -194.829 16.0496 -0.235838 -196.471 16.3937 -0.308552 -199.449 17.4188 -0.372461 -204.091 19.2409 -0.428855 -210.887 22.0488 -0.478784 -124.535 24.1257 -0.041745 -132.84 23.6975 -0.021239 -141.142 24.7818 -0.00500393 -149.669 26.924 0.00806072 -158.623 29.8427 0.018709 -168.203 33.3667 0.027475 -178.622 37.3997 0.0347474 -190.12 41.9007 0.040816 -189.218 40.4076 -0.043623 -189.243 39.4852 -0.116071 -190.328 39.1442 -0.178488 -192.666 39.4258 -0.232435 -196.536 40.41 -0.279174 -202.352 42.2317 -0.31973 -210.738 45.1097 -0.354952 -114.389 34.0613 -0.0311192 -123.266 36.387 -0.0158971 -132.033 39.595 -0.00375368 -140.92 43.4403 0.00605161 -150.134 47.7812 0.0140418 -159.88 52.5454 0.0205967 -170.375 57.7114 0.025999 -181.867 63.2997 0.0304631 -181.147 61.8617 -0.0324598 -181.39 61.021 -0.0860687 -182.748 60.8077 -0.131842 -185.434 61.286 -0.17097 -189.766 62.5666 -0.204423 -196.214 64.8289 -0.233 -205.505 68.3623 -0.257362 -104.554 44.3081 -0.0221642 -113.608 48.6934 -0.0113488 -122.497 53.5444 -0.00268267 -131.437 58.7559 0.00432563 -140.627 64.2843 0.0100308 -150.266 70.1308 0.0146952 -160.566 76.3335 0.0185169 -171.771 82.9648 0.0216484 -171.1 81.6367 -0.0230074 -171.398 80.9579 -0.060826 -172.82 80.982 -0.092872 -175.592 81.8033 -0.12001 -180.046 83.574 -0.142951 -186.684 86.5353 -0.162281 -196.289 91.0737 -0.17849 -94.7917 54.6278 -0.0142631 -103.73 60.5669 -0.00731245 -112.485 66.6945 -0.00172941 -121.25 73.0034 0.00278824 -130.207 79.5223 0.0064617 -139.54 86.3089 0.00945654 -149.451 93.4493 0.0118991 -160.17 101.06 0.0138876 -159.462 99.8663 -0.0147301 -159.701 99.3865 -0.0388558 -161.041 99.6999 -0.0591812 -163.702 100.934 -0.0762714 -168.018 103.286 -0.090592 -174.492 107.068 -0.102531 -183.921 112.776 -0.112412 -84.9653 64.8833 -0.00698603 -93.5396 71.9916 -0.00358385 -101.949 79.1069 -0.000847752 -110.355 86.2943 0.00136657 -118.914 93.6367 0.0031656 -127.791 101.236 0.00462958 -137.168 109.218 0.00582016 -147.256 117.737 0.00678543 -146.458 116.683 -0.00718809 -146.566 116.413 -0.0189347 -147.722 117.03 -0.0287953 -150.134 118.692 -0.0370493 -154.117 121.644 -0.0439277 -160.153 126.264 -0.049623 -169.009 133.16 -0.0542969 -75.0032 75.0032 2.94979e-11 -82.9742 82.9742 3.72347e-11 -90.8402 90.8402 4.32161e-11 -98.7204 98.7204 4.77724e-11 -106.74 106.74 5.12575e-11 -115.036 115.036 5.38734e-11 -123.765 123.765 5.57634e-11 -133.113 133.113 5.70323e-11 -132.195 132.195 6.66691e-11 -132.126 132.126 7.44544e-11 -133.031 133.031 8.07642e-11 -135.098 135.098 8.56992e-11 -138.61 138.61 8.95095e-11 -144.005 144.005 9.23636e-11 -151.985 151.985 9.44697e-11 -64.8833 84.9653 0.00698603 -71.9916 93.5396 0.00358385 -79.1069 101.949 0.000847752 -86.2943 110.355 -0.00136657 -93.6367 118.914 -0.0031656 -101.236 127.791 -0.00462958 -109.218 137.168 -0.00582016 -117.737 147.256 -0.00678543 -116.683 146.458 0.00718809 -116.413 146.566 0.0189347 -117.03 147.722 0.0287953 -118.692 150.134 0.0370493 -121.644 154.117 0.0439277 -126.264 160.153 0.049623 -133.16 169.009 0.0542969 -54.6278 94.7917 0.0142631 -60.5669 103.73 0.00731245 -66.6945 112.485 0.00172941 -73.0034 121.25 -0.00278824 -79.5223 130.207 -0.0064617 -86.3089 139.54 -0.00945654 -93.4493 149.451 -0.0118991 -101.06 160.17 -0.0138876 -99.8663 159.462 0.0147301 -99.3865 159.701 0.0388558 -99.6999 161.041 0.0591812 -100.934 163.702 0.0762714 -103.286 168.018 0.090592 -107.068 174.492 0.102531 -112.776 183.921 0.112412 -44.3081 104.554 0.0221642 -48.6934 113.608 0.0113488 -53.5444 122.497 0.00268267 -58.7559 131.437 -0.00432563 -64.2843 140.627 -0.0100308 -70.1308 150.266 -0.0146952 -76.3335 160.566 -0.0185169 -82.9648 171.771 -0.0216484 -81.6367 171.1 0.0230074 -80.9579 171.398 0.060826 -80.982 172.82 0.092872 -81.8033 175.592 0.12001 -83.574 180.046 0.142951 -86.5353 186.684 0.162281 -91.0737 196.289 0.17849 -34.0613 114.389 0.0311193 -36.387 123.266 0.0158971 -39.595 132.033 0.00375368 -43.4403 140.92 -0.00605161 -47.7812 150.134 -0.0140418 -52.5454 159.88 -0.0205967 -57.7114 170.375 -0.025999 -63.2997 181.867 -0.0304631 -61.8617 181.147 0.0324598 -61.021 181.39 0.0860687 -60.8077 182.748 0.131842 -61.286 185.434 0.17097 -62.5666 189.766 0.204423 -64.8289 196.214 0.233 -68.3623 205.505 0.257362 -24.1257 124.535 0.041745 -23.6975 132.84 0.021239 -24.7818 141.142 0.00500393 -26.924 149.669 -0.00806072 -29.8427 158.623 -0.018709 -33.3667 168.203 -0.027475 -37.3997 178.622 -0.0347474 -41.9007 190.12 -0.040816 -40.4076 189.218 0.043623 -39.4852 189.243 0.116071 -39.1442 190.328 0.178488 -39.4258 192.666 0.232435 -40.41 196.536 0.279174 -42.2317 202.352 0.31973 -45.1097 210.738 0.354952 -14.915 135.407 0.0550134 -10.7308 142.544 0.0277958 -9.04022 149.881 0.00652172 -9.04981 157.609 -0.0104841 -10.2676 165.9 -0.0243222 -12.3836 174.931 -0.0357451 -15.2039 184.89 -0.0452851 -18.6138 196.001 -0.0533294 -17.1744 194.725 0.0571799 -16.3199 194.299 0.152716 -16.0496 194.829 0.235838 -16.3937 196.471 0.308552 -17.4188 199.449 0.372461 -19.2409 204.091 0.428855 -22.0488 210.887 0.478784 -7.18193 147.755 0.0726091 2.30468 152.735 0.0362521 7.69043 158.323 0.00844309 10.3706 164.594 -0.0135154 11.1792 171.64 -0.031294 10.6342 179.574 -0.0459824 9.0627 188.539 -0.0583219 6.66995 198.715 -0.0688342 7.85683 196.8 0.0740312 8.38442 195.611 0.19847 8.25204 195.218 0.307832 7.42337 195.722 0.404699 5.82077 197.277 0.491099 3.31282 200.101 0.568639 -0.308786 204.525 0.638617 -182.052 7.98099 -1.71107 -190.158 -2.85616 -1.17805 -198.795 -8.73573 -1.02016 -208.057 -11.4325 -1.00523 -218.048 -12.0099 -0.998196 -228.895 -11.1357 -0.915829 -240.745 -9.24358 -0.703415 -253.777 -6.62205 -0.321824 -250.956 -8.6757 -1.1748 -248.992 -9.69009 -1.73556 -247.944 -9.74716 -1.99868 -247.9 -8.87675 -1.9472 -248.986 -7.05963 -1.55079 -251.38 -4.22423 -0.762183 -255.334 -0.2363 0.488705 -166.524 17.32 -0.410262 -177.352 12.9757 -0.163579 -188.149 11.6018 -0.152212 -199.152 12.1866 -0.218659 -210.564 14.097 -0.268702 -222.576 16.9247 -0.243975 -235.388 20.4016 -0.106827 -249.216 24.3516 0.168547 -247.583 22.2895 -0.545962 -246.835 21.0725 -1.02834 -247.069 20.6374 -1.27859 -248.416 20.9605 -1.2885 -251.053 22.0569 -1.0402 -255.228 23.9838 -0.503631 -261.284 26.8507 0.367924 -152.737 28.4007 0.264109 -165.07 28.7822 0.363347 -177.094 30.8997 0.309012 -189.085 34.1723 0.212516 -201.278 38.2317 0.141386 -213.889 42.8422 0.137205 -227.134 47.8554 0.226007 -241.248 53.183 0.424605 -240.395 51.312 -0.157545 -240.435 50.1708 -0.558551 -241.487 49.7216 -0.781572 -243.712 49.9598 -0.823957 -247.325 50.9147 -0.676248 -252.62 52.656 -0.320323 -260.013 55.3053 0.273821 -139.853 40.3837 0.550336 -152.926 44.3241 0.575642 -165.55 49.196 0.499492 -177.997 54.6818 0.401232 -190.504 60.5868 0.329191 -203.288 66.7965 0.312795 -216.571 73.2521 0.369834 -230.586 79.9363 0.511 -230.197 78.3574 0.0545526 -230.689 77.4512 -0.264662 -232.197 77.2086 -0.45116 -234.895 77.6516 -0.505439 -239.021 78.8368 -0.423298 -244.9 80.8648 -0.194553 -252.993 83.8966 0.19921 -127.401 52.7989 0.588665 -140.684 59.4731 0.581469 -153.456 66.5386 0.508514 -165.965 73.8499 0.424649 -178.434 81.3323 0.363309 -191.072 88.9599 0.344591 -204.092 96.7433 0.380234 -217.718 104.723 0.47677 -217.554 103.475 0.140027 -218.247 102.882 -0.0980959 -219.933 102.967 -0.242108 -222.793 103.782 -0.29385 -227.07 105.418 -0.252045 -233.103 108.019 -0.11147 -241.377 111.803 0.138542 -115.107 65.3723 0.469498 -128.194 74.1639 0.453774 -140.759 82.9794 0.398527 -153.021 91.7923 0.338396 -165.179 100.615 0.294473 -177.423 109.488 0.279297 -189.949 118.478 0.299978 -202.97 127.672 0.360199 -202.854 126.751 0.138411 -203.56 126.498 -0.019616 -205.218 126.963 -0.11741 -208.003 128.23 -0.156871 -212.155 130.428 -0.138013 -218.009 133.749 -0.0584633 -226.047 138.479 0.0874315 -102.812 77.945 0.256654 -115.352 88.3701 0.245778 -127.411 98.5709 0.216334 -139.167 108.608 0.18511 -150.787 118.558 0.162318 -162.436 128.514 0.153984 -174.289 138.586 0.163457 -186.535 148.903 0.192384 -186.338 148.28 0.082308 -186.92 148.354 0.00352983 -188.401 149.203 -0.0458681 -190.941 150.94 -0.0670339 -194.764 153.731 -0.060227 -200.185 157.815 -0.0245869 -207.661 163.546 0.0422841 -90.4336 90.4336 2.50466e-11 -102.092 102.092 3.41004e-11 -113.365 113.365 4.09201e-11 -124.378 124.378 4.59561e-11 -135.259 135.259 4.96239e-11 -146.141 146.141 5.22165e-11 -157.17 157.17 5.39178e-11 -168.508 168.508 5.49276e-11 -168.133 168.133 6.13216e-11 -168.495 168.495 6.6029e-11 -169.693 169.693 6.92957e-11 -171.869 171.869 7.12852e-11 -175.22 175.22 7.21467e-11 -180.028 180.028 7.19362e-11 -186.707 186.707 7.0746e-11 -77.945 102.812 -0.256654 -88.3701 115.352 -0.245778 -98.5709 127.411 -0.216334 -108.608 139.167 -0.18511 -118.558 150.787 -0.162318 -128.514 162.436 -0.153984 -138.586 174.289 -0.163457 -148.903 186.535 -0.192384 -148.28 186.338 -0.082308 -148.354 186.92 -0.00352983 -149.203 188.401 0.0458681 -150.94 190.941 0.0670339 -153.731 194.764 0.060227 -157.815 200.185 0.0245869 -163.546 207.661 -0.0422841 -65.3723 115.107 -0.469498 -74.1639 128.194 -0.453774 -82.9794 140.759 -0.398527 -91.7923 153.021 -0.338396 -100.615 165.179 -0.294473 -109.488 177.423 -0.279297 -118.478 189.949 -0.299978 -127.672 202.97 -0.360199 -126.751 202.854 -0.138411 -126.498 203.56 0.019616 -126.963 205.218 0.11741 -128.23 208.003 0.156871 -130.428 212.155 0.138013 -133.749 218.009 0.0584633 -138.479 226.047 -0.0874315 -52.7989 127.401 -0.588665 -59.4731 140.684 -0.581469 -66.5386 153.456 -0.508514 -73.8499 165.965 -0.424649 -81.3323 178.434 -0.363309 -88.9599 191.072 -0.344591 -96.7433 204.092 -0.380234 -104.723 217.718 -0.47677 -103.475 217.554 -0.140027 -102.882 218.247 0.0980959 -102.967 219.933 0.242108 -103.782 222.793 0.29385 -105.418 227.07 0.252045 -108.019 233.103 0.11147 -111.803 241.377 -0.138542 -40.3837 139.853 -0.550336 -44.3241 152.926 -0.575642 -49.196 165.55 -0.499492 -54.6818 177.997 -0.401232 -60.5868 190.504 -0.329191 -66.7965 203.288 -0.312795 -73.2521 216.571 -0.369834 -79.9363 230.586 -0.511 -78.3574 230.197 -0.0545526 -77.4512 230.689 0.264662 -77.2086 232.197 0.45116 -77.6516 234.895 0.505439 -78.8368 239.021 0.423298 -80.8648 244.9 0.194553 -83.8966 252.993 -0.19921 -28.4007 152.737 -0.264109 -28.7822 165.07 -0.363347 -30.8997 177.094 -0.309012 -34.1723 189.085 -0.212516 -38.2317 201.278 -0.141386 -42.8422 213.889 -0.137205 -47.8554 227.134 -0.226007 -53.183 241.248 -0.424605 -51.312 240.395 0.157545 -50.1708 240.435 0.558551 -49.7216 241.487 0.781572 -49.9598 243.712 0.823957 -50.9147 247.325 0.676248 -52.656 252.62 0.320323 -55.3053 260.013 -0.273821 -17.32 166.524 0.410262 -12.9757 177.352 0.163579 -11.6018 188.149 0.152212 -12.1866 199.152 0.218659 -14.097 210.564 0.268702 -16.9247 222.576 0.243975 -20.4016 235.388 0.106827 -24.3516 249.216 -0.168547 -22.2895 247.583 0.545962 -21.0725 246.835 1.02834 -20.6374 247.069 1.27859 -20.9605 248.416 1.2885 -22.0569 251.053 1.0402 -23.9838 255.228 0.503631 -26.8507 261.284 -0.367924 -7.98099 182.052 1.71107 2.85616 190.158 1.17805 8.73573 198.795 1.02016 11.4325 208.057 1.00523 12.0099 218.048 0.998196 11.1357 228.895 0.915829 9.24358 240.745 0.703415 6.62205 253.777 0.321824 8.6757 250.956 1.1748 9.69009 248.992 1.73556 9.74716 247.944 1.99868 8.87675 247.9 1.9472 7.05963 248.986 1.55079 4.22423 251.38 0.762183 0.2363 255.334 -0.488705 -217.868 8.90093 -3.45362 -230.043 -2.72394 -1.71014 -242.618 -8.23732 -1.0155 -255.722 -10.0815 -0.732986 -269.504 -9.69548 -0.504463 -284.139 -7.98684 -0.117455 -299.836 -5.56271 0.559964 -316.844 -2.8525 1.61411 -312.102 -6.78279 -1.24805 -308.316 -9.16013 -3.10322 -305.596 -10.1884 -3.97278 -304.085 -9.97676 -3.83601 -303.978 -8.55162 -2.62524 -305.538 -5.85675 -0.214572 -309.139 -1.74108 3.60082 -200.043 20.928 -1.96693 -215.244 15.9351 -0.672442 -230.106 14.9103 -0.172803 -244.916 16.3463 0.00525341 -259.912 19.2999 0.141232 -275.313 23.1488 0.405286 -291.344 27.4637 0.902785 -308.248 31.9359 1.69962 -305.894 28.8654 -0.603073 -304.283 26.936 -2.08871 -303.561 25.9944 -2.78745 -303.905 25.9519 -2.70336 -305.53 26.7756 -1.81202 -308.716 28.4871 -0.0546903 -313.839 31.1673 2.6723 -183.556 34.2936 -1.0534 -200.521 34.545 -0.0761769 -216.787 37.3303 0.292647 -232.661 41.6993 0.408529 -248.392 47.0304 0.489071 -264.198 52.9004 0.669263 -280.292 59.0122 1.03242 -296.895 65.1514 1.62853 -296.275 63.0216 -0.190243 -296.191 61.7056 -1.35924 -296.803 61.0998 -1.91171 -298.287 61.1457 -1.86513 -300.854 61.8246 -1.22007 -304.765 63.1563 0.0427596 -310.361 65.2031 1.96788 -167.832 48.4224 -0.508649 -185.657 52.9381 0.222202 -202.635 58.987 0.494298 -219.039 65.9669 0.57113 -235.088 73.472 0.618311 -250.977 81.2212 0.740011 -266.891 89.0165 1.0003 -283.02 96.7181 1.43633 -283.591 95.5291 0.0437752 -284.52 94.8941 -0.848625 -285.958 94.7546 -1.27262 -288.068 95.0839 -1.2508 -291.04 95.885 -0.795926 -295.107 97.1907 0.0904628 -300.56 99.0674 1.42075 -152.535 62.9772 -0.205794 -170.518 71.0095 0.318254 -187.639 79.8541 0.511958 -204.111 89.1365 0.562389 -220.107 98.6006 0.589374 -235.786 108.069 0.669034 -251.3 117.421 0.84806 -266.803 126.576 1.15278 -268.117 126.267 0.143434 -269.646 126.31 -0.501956 -271.523 126.686 -0.810157 -273.893 127.397 -0.802818 -276.92 128.47 -0.496128 -280.802 129.957 0.0999128 -285.786 131.936 0.982782 -137.46 77.7547 -0.0595255 -155.019 88.6929 0.28003 -171.792 99.9117 0.405137 -187.922 111.193 0.435967 -203.531 122.39 0.450481 -218.734 133.405 0.498536 -233.646 144.177 0.61065 -248.387 154.674 0.803683 -250.069 155.136 0.147024 -251.865 155.801 -0.272213 -253.888 156.684 -0.473251 -256.261 157.813 -0.472669 -259.123 159.237 -0.284205 -262.639 161.028 0.081604 -267.013 163.283 0.618032 -122.487 92.6342 -0.00755463 -139.108 105.948 0.159571 -155.092 119.145 0.221078 -170.508 132.121 0.235769 -185.423 144.813 0.242079 -199.906 157.187 0.264681 -214.031 169.233 0.318656 -227.884 180.961 0.412236 -229.618 182.045 0.0886871 -231.414 183.236 -0.117695 -233.362 184.573 -0.216932 -235.562 186.112 -0.217936 -238.128 187.924 -0.128423 -241.198 190.098 0.0452448 -244.941 192.754 0.298299 -107.552 107.552 2.36788e-11 -122.755 122.755 3.06706e-11 -137.541 137.541 3.59645e-11 -151.899 151.899 3.9869e-11 -165.836 165.836 4.26943e-11 -179.371 179.371 4.46407e-11 -192.537 192.537 4.58211e-11 -205.384 205.384 4.63807e-11 -206.906 206.906 5.18448e-11 -208.485 208.485 5.55644e-11 -210.19 210.19 5.7824e-11 -212.098 212.098 5.86908e-11 -214.3 214.3 5.83711e-11 -216.91 216.91 5.68434e-11 -220.069 220.069 5.41877e-11 -92.6342 122.487 0.00755463 -105.948 139.108 -0.159571 -119.145 155.092 -0.221078 -132.121 170.508 -0.235769 -144.813 185.423 -0.242079 -157.187 199.906 -0.264681 -169.233 214.031 -0.318656 -180.961 227.884 -0.412236 -182.045 229.618 -0.0886871 -183.236 231.414 0.117695 -184.573 233.362 0.216932 -186.112 235.562 0.217936 -187.924 238.128 0.128423 -190.098 241.198 -0.0452448 -192.754 244.941 -0.298299 -77.7547 137.46 0.0595255 -88.6929 155.019 -0.28003 -99.9117 171.792 -0.405137 -111.193 187.922 -0.435967 -122.39 203.531 -0.450481 -133.405 218.734 -0.498536 -144.177 233.646 -0.61065 -154.674 248.387 -0.803683 -155.136 250.069 -0.147024 -155.801 251.865 0.272213 -156.684 253.888 0.473251 -157.813 256.261 0.472669 -159.237 259.123 0.284205 -161.028 262.639 -0.081604 -163.283 267.013 -0.618032 -62.9772 152.535 0.205794 -71.0095 170.518 -0.318254 -79.8541 187.639 -0.511958 -89.1365 204.111 -0.562389 -98.6006 220.107 -0.589374 -108.069 235.786 -0.669034 -117.421 251.3 -0.84806 -126.576 266.803 -1.15278 -126.267 268.117 -0.143434 -126.31 269.646 0.501956 -126.686 271.523 0.810157 -127.397 273.893 0.802818 -128.47 276.92 0.496128 -129.957 280.802 -0.0999128 -131.936 285.786 -0.982782 -48.4224 167.832 0.508649 -52.9381 185.657 -0.222202 -58.987 202.635 -0.494298 -65.9669 219.039 -0.57113 -73.472 235.088 -0.618311 -81.2212 250.977 -0.740011 -89.0165 266.891 -1.0003 -96.7181 283.02 -1.43633 -95.5291 283.591 -0.0437752 -94.8941 284.52 0.848625 -94.7546 285.958 1.27262 -95.0839 288.068 1.2508 -95.885 291.04 0.795926 -97.1907 295.107 -0.0904628 -99.0674 300.56 -1.42075 -34.2936 183.556 1.0534 -34.545 200.521 0.0761769 -37.3303 216.787 -0.292647 -41.6993 232.661 -0.408529 -47.0304 248.392 -0.489071 -52.9004 264.198 -0.669263 -59.0122 280.292 -1.03242 -65.1514 296.895 -1.62853 -63.0216 296.275 0.190243 -61.7056 296.191 1.35924 -61.0998 296.803 1.91171 -61.1457 298.287 1.86513 -61.8246 300.854 1.22007 -63.1563 304.765 -0.0427596 -65.2031 310.361 -1.96788 -20.928 200.043 1.96693 -15.9351 215.244 0.672442 -14.9103 230.106 0.172803 -16.3463 244.916 -0.00525341 -19.2999 259.912 -0.141232 -23.1488 275.313 -0.405286 -27.4637 291.344 -0.902785 -31.9359 308.248 -1.69962 -28.8654 305.894 0.603073 -26.936 304.283 2.08871 -25.9944 303.561 2.78745 -25.9519 303.905 2.70336 -26.7756 305.53 1.81202 -28.4871 308.716 0.0546903 -31.1673 313.839 -2.6723 -8.90093 217.868 3.45362 2.72394 230.043 1.71014 8.23732 242.618 1.0155 10.0815 255.722 0.732986 9.69548 269.504 0.504463 7.98684 284.139 0.117455 5.56271 299.836 -0.559964 2.8525 316.844 -1.61411 6.78279 312.102 1.24805 9.16013 308.316 3.10322 10.1884 305.596 3.97278 9.97676 304.085 3.83601 8.55162 303.978 2.62524 5.85675 305.538 0.214572 1.74108 309.139 -3.60082 -234.271 9.6913 -3.62662 -250.131 -2.03464 -1.58087 -265.987 -7.60266 -0.818381 -281.84 -9.65765 -0.567571 -297.689 -9.75337 -0.405956 -313.533 -8.87774 -0.0944588 -329.371 -7.70129 0.500966 -345.205 -6.70523 1.44974 -343.333 -10.1056 -2.04266 -341.459 -11.5554 -4.12718 -339.581 -11.5229 -4.88229 -337.7 -10.3598 -4.37219 -335.815 -8.33436 -2.65069 -333.927 -5.65471 0.236062 -332.036 -2.48386 4.24775 -214.709 22.2123 -2.24097 -233.597 18.0246 -0.650477 -251.714 17.6317 -0.0406111 -269.228 19.3923 0.161791 -286.238 22.2756 0.284856 -302.801 25.5917 0.518117 -318.958 28.8539 0.966894 -334.731 31.7037 1.68221 -335.873 29.6938 -1.10788 -336.67 28.9021 -2.77083 -337.174 28.9642 -3.38735 -337.429 29.6005 -3.03242 -337.47 30.5939 -1.77688 -337.331 31.7736 0.311654 -337.041 33.0041 3.16818 -196.657 36.2426 -1.35353 -217.259 37.9803 -0.110944 -236.717 41.9416 0.379701 -255.224 47.0753 0.54702 -272.896 52.6849 0.644414 -289.804 58.2843 0.820404 -305.993 63.5204 1.15683 -321.493 68.1286 1.69098 -324.748 67.5778 -0.500088 -327.375 67.6476 -1.80472 -329.451 68.0671 -2.29895 -331.042 68.6271 -2.0578 -332.206 69.1656 -1.15537 -332.994 69.5561 0.335274 -333.456 69.7 2.34233 -179.493 51.1615 -0.788704 -200.878 57.6777 0.163747 -220.963 65.3328 0.54997 -239.909 73.4382 0.685958 -257.811 81.5164 0.76292 -274.727 89.223 0.894094 -290.692 96.3019 1.14141 -305.732 102.56 1.53164 -310.37 103.443 -0.138248 -314.165 104.458 -1.13191 -317.199 105.414 -1.51559 -319.548 106.166 -1.35673 -321.277 106.606 -0.723335 -322.451 106.65 0.316721 -323.128 106.239 1.69633 -162.851 66.6024 -0.436484 -184.302 77.0247 0.258125 -204.429 87.8158 0.545989 -223.337 98.5192 0.650313 -241.086 108.806 0.708396 -257.706 118.43 0.802129 -273.215 127.208 0.97603 -287.627 135 1.24853 -293.054 137.221 0.0424355 -297.491 139.178 -0.674983 -301.018 140.748 -0.956393 -303.708 141.841 -0.856389 -305.629 142.395 -0.430562 -306.846 142.367 0.265337 -307.427 141.733 1.17614 -146.509 82.343 -0.222336 -167.429 95.9677 0.232681 -187.093 109.403 0.424274 -205.543 122.35 0.495252 -222.791 134.58 0.534422 -238.838 145.924 0.595004 -253.68 156.248 0.705794 -267.314 165.454 0.878338 -273.036 168.864 0.0956283 -277.698 171.696 -0.36986 -281.367 173.883 -0.554611 -284.104 175.383 -0.496813 -285.973 176.171 -0.235545 -287.037 176.24 0.189937 -287.362 175.596 0.740823 -130.334 98.2507 -0.0915183 -150.194 114.48 0.133807 -168.939 130.11 0.229603 -186.544 144.953 0.265575 -202.972 158.861 0.285344 -218.191 171.716 0.315118 -232.17 183.427 0.369041 -244.887 193.927 0.452668 -250.494 198.327 0.0675823 -255.048 201.915 -0.161415 -258.592 204.668 -0.252966 -261.174 206.582 -0.226682 -262.843 207.664 -0.102675 -263.655 207.935 0.0988421 -263.671 207.424 0.357908 -114.255 114.255 3.29941e-11 -132.552 132.552 3.78541e-11 -149.95 149.95 4.11643e-11 -166.348 166.348 4.33564e-11 -181.658 181.658 4.47349e-11 -195.809 195.809 4.56253e-11 -208.74 208.74 4.61151e-11 -220.411 220.411 4.63878e-11 -225.56 225.56 4.99192e-11 -229.737 229.737 5.19726e-11 -232.959 232.959 5.27409e-11 -235.248 235.248 5.23048e-11 -236.638 236.638 5.07949e-11 -237.17 237.17 4.83369e-11 -236.892 236.892 4.50499e-11 -98.2507 130.334 0.0915183 -114.48 150.194 -0.133807 -130.11 168.939 -0.229603 -144.953 186.544 -0.265575 -158.861 202.972 -0.285344 -171.716 218.191 -0.315118 -183.427 232.17 -0.369041 -193.927 244.887 -0.452668 -198.327 250.494 -0.0675823 -201.915 255.048 0.161415 -204.668 258.592 0.252966 -206.582 261.174 0.226682 -207.664 262.843 0.102675 -207.935 263.655 -0.0988421 -207.424 263.671 -0.357908 -82.343 146.509 0.222336 -95.9677 167.429 -0.232681 -109.403 187.093 -0.424274 -122.35 205.543 -0.495252 -134.58 222.791 -0.534422 -145.924 238.838 -0.595004 -156.248 253.68 -0.705794 -165.454 267.314 -0.878338 -168.864 273.036 -0.0956283 -171.696 277.698 0.36986 -173.883 281.367 0.554611 -175.383 284.104 0.496813 -176.171 285.973 0.235545 -176.24 287.037 -0.189937 -175.596 287.362 -0.740823 -66.6024 162.851 0.436484 -77.0247 184.302 -0.258125 -87.8158 204.429 -0.545989 -98.5192 223.337 -0.650313 -108.806 241.086 -0.708396 -118.43 257.706 -0.802129 -127.208 273.215 -0.97603 -135 287.627 -1.24853 -137.221 293.054 -0.0424355 -139.178 297.491 0.674983 -140.748 301.018 0.956393 -141.841 303.708 0.856389 -142.395 305.629 0.430562 -142.367 306.846 -0.265337 -141.733 307.427 -1.17614 -51.1615 179.493 0.788704 -57.6777 200.878 -0.163747 -65.3328 220.963 -0.54997 -73.4382 239.909 -0.685958 -81.5164 257.811 -0.76292 -89.223 274.727 -0.894094 -96.3019 290.692 -1.14141 -102.56 305.732 -1.53164 -103.443 310.37 0.138248 -104.458 314.165 1.13191 -105.414 317.199 1.51559 -106.166 319.548 1.35673 -106.606 321.277 0.723335 -106.65 322.451 -0.316721 -106.239 323.128 -1.69633 -36.2426 196.657 1.35353 -37.9803 217.259 0.110944 -41.9416 236.717 -0.379701 -47.0753 255.224 -0.54702 -52.6849 272.896 -0.644414 -58.2843 289.804 -0.820404 -63.5204 305.993 -1.15683 -68.1286 321.493 -1.69098 -67.5778 324.748 0.500088 -67.6476 327.375 1.80472 -68.0671 329.451 2.29895 -68.6271 331.042 2.0578 -69.1656 332.206 1.15537 -69.5561 332.994 -0.335274 -69.7 333.456 -2.34233 -22.2123 214.709 2.24097 -18.0246 233.597 0.650477 -17.6317 251.714 0.0406111 -19.3923 269.228 -0.161791 -22.2756 286.238 -0.284856 -25.5917 302.801 -0.518117 -28.8539 318.958 -0.966894 -31.7037 334.731 -1.68221 -29.6938 335.873 1.10788 -28.9021 336.67 2.77083 -28.9642 337.174 3.38735 -29.6005 337.429 3.03242 -30.5939 337.47 1.77688 -31.7736 337.331 -0.311654 -33.0041 337.041 -3.16818 -9.6913 234.271 3.62662 2.03464 250.131 1.58087 7.60266 265.987 0.818381 9.65765 281.84 0.567571 9.75337 297.689 0.405956 8.87774 313.533 0.0944588 7.70129 329.371 -0.500966 6.70523 345.205 -1.44974 10.1056 343.333 2.04266 11.5554 341.459 4.12718 11.5229 339.581 4.88229 10.3598 337.7 4.37219 8.33436 335.815 2.65069 5.65471 333.927 -0.236062 2.48386 332.036 -4.24775 -250.955 12.528 -3.93531 -269.308 -0.811398 -1.50972 -287.629 -7.04523 -0.639317 -305.911 -9.29658 -0.380774 -324.148 -9.36878 -0.227426 -342.336 -8.39434 0.102414 -360.467 -7.13496 0.763372 -378.537 -6.13349 1.83265 -376.568 -10.0468 -2.21184 -374.562 -11.7972 -4.61366 -372.52 -11.9207 -5.47571 -370.444 -10.8188 -4.88282 -368.332 -8.79762 -2.90702 -366.187 -6.09408 0.388923 -364.009 -2.89398 4.94911 -229.631 25.2654 -2.60445 -251.3 20.4149 -0.666769 -272.068 19.9682 0.0666556 -292.132 21.9774 0.302538 -311.598 25.2393 0.438328 -330.529 28.9584 0.699936 -348.964 32.5787 1.21057 -366.925 35.6939 2.02795 -368.233 33.3304 -1.20713 -369.122 32.3255 -3.12382 -369.651 32.261 -3.82511 -369.869 32.8178 -3.40595 -369.817 33.7487 -1.95555 -369.529 34.8604 0.441197 -369.04 36 3.70287 -210.036 39.7305 -1.71333 -233.559 41.57 -0.170076 -255.764 46.0106 0.441927 -276.878 51.8005 0.653736 -297.03 58.1233 0.774218 -316.297 64.4158 0.981802 -334.727 70.2727 1.37322 -352.348 75.3926 1.99131 -355.965 74.657 -0.551457 -358.849 74.6189 -2.05522 -361.088 74.9662 -2.61551 -362.753 75.4596 -2.32544 -363.911 75.9147 -1.27619 -364.618 76.1884 0.442903 -364.927 76.1698 2.74449 -191.486 55.2415 -1.10841 -215.826 62.4881 0.0905074 -238.678 71.0881 0.584359 -260.231 80.2202 0.765745 -280.595 89.3233 0.868666 -299.83 97.9966 1.0299 -317.973 105.945 1.32322 -335.05 112.947 1.77976 -340.184 113.814 -0.159384 -344.346 114.834 -1.30459 -347.633 115.787 -1.73825 -350.126 116.507 -1.54319 -351.9 116.867 -0.802129 -353.026 116.775 0.402956 -353.568 116.164 1.99146 -173.576 71.3933 -0.692806 -197.933 83.0695 0.189588 -220.781 95.2118 0.563742 -242.247 107.276 0.707412 -262.398 118.873 0.789051 -281.265 129.719 0.907943 -298.867 139.6 1.11742 -315.213 148.353 1.43912 -321.21 150.72 0.0379549 -326.079 152.796 -0.788721 -329.907 154.438 -1.10601 -332.778 155.542 -0.980538 -334.766 156.036 -0.479486 -335.945 155.872 0.330233 -336.387 155.022 1.38279 -156.061 87.9389 -0.400462 -179.768 103.256 0.180986 -202.05 118.395 0.432577 -222.96 132.999 0.532173 -242.512 146.801 0.588903 -260.704 159.6 0.667442 -277.528 171.242 0.802424 -292.976 181.612 1.00751 -299.293 185.314 0.0979566 -304.407 188.37 -0.438323 -308.392 190.703 -0.646254 -311.319 192.263 -0.57226 -313.256 193.02 -0.26341 -314.274 192.965 0.233352 -314.447 192.105 0.871881 -138.792 104.731 -0.18264 -161.256 123.019 0.106246 -182.464 140.654 0.232749 -202.389 157.414 0.283721 -220.987 173.124 0.312809 -238.219 187.645 0.351907 -254.045 200.872 0.418062 -268.44 212.723 0.517884 -274.62 217.539 0.0703209 -279.61 221.443 -0.193467 -283.457 224.409 -0.29639 -286.215 226.43 -0.262241 -287.938 227.512 -0.115201 -288.689 227.678 0.120604 -288.532 226.96 0.421479 -121.69 121.69 3.7387e-11 -142.349 142.349 4.02578e-11 -162.005 162.005 4.20747e-11 -180.541 180.541 4.31017e-11 -197.853 197.853 4.36104e-11 -213.856 213.856 4.37188e-11 -228.48 228.48 4.35527e-11 -241.674 241.674 4.31424e-11 -247.334 247.334 4.53522e-11 -251.9 251.9 4.64073e-11 -255.389 255.389 4.63913e-11 -257.825 257.825 4.54943e-11 -259.245 259.245 4.37197e-11 -259.694 259.694 4.12577e-11 -259.224 259.224 3.81246e-11 -104.731 138.792 0.18264 -123.019 161.256 -0.106246 -140.654 182.464 -0.232749 -157.414 202.389 -0.283721 -173.124 220.987 -0.312809 -187.645 238.219 -0.351907 -200.872 254.045 -0.418062 -212.723 268.44 -0.517884 -217.539 274.62 -0.0703209 -221.443 279.61 0.193467 -224.409 283.457 0.29639 -226.43 286.215 0.262241 -227.512 287.938 0.115201 -227.678 288.689 -0.120604 -226.96 288.532 -0.421479 -87.9389 156.061 0.400462 -103.256 179.768 -0.180986 -118.395 202.05 -0.432577 -132.999 222.96 -0.532173 -146.801 242.512 -0.588903 -159.6 260.704 -0.667442 -171.242 277.528 -0.802424 -181.612 292.976 -1.00751 -185.314 299.293 -0.0979566 -188.37 304.407 0.438323 -190.703 308.392 0.646254 -192.263 311.319 0.57226 -193.02 313.256 0.26341 -192.965 314.274 -0.233352 -192.105 314.447 -0.871881 -71.3933 173.576 0.692806 -83.0695 197.933 -0.189588 -95.2118 220.781 -0.563742 -107.276 242.247 -0.707412 -118.873 262.398 -0.789051 -129.719 281.265 -0.907943 -139.6 298.867 -1.11742 -148.353 315.213 -1.43912 -150.72 321.21 -0.0379549 -152.796 326.079 0.788721 -154.438 329.907 1.10601 -155.542 332.778 0.980538 -156.036 334.766 0.479486 -155.872 335.945 -0.330233 -155.022 336.387 -1.38279 -55.2415 191.486 1.10841 -62.4881 215.826 -0.0905074 -71.0881 238.678 -0.584359 -80.2202 260.231 -0.765745 -89.3233 280.595 -0.868666 -97.9966 299.83 -1.0299 -105.945 317.973 -1.32322 -112.947 335.05 -1.77976 -113.814 340.184 0.159384 -114.834 344.346 1.30459 -115.787 347.633 1.73825 -116.507 350.126 1.54319 -116.867 351.9 0.802129 -116.775 353.026 -0.402956 -116.164 353.568 -1.99146 -39.7305 210.036 1.71333 -41.57 233.559 0.170076 -46.0106 255.764 -0.441927 -51.8005 276.878 -0.653736 -58.1233 297.03 -0.774218 -64.4158 316.297 -0.981802 -70.2727 334.727 -1.37322 -75.3926 352.348 -1.99131 -74.657 355.965 0.551457 -74.6189 358.849 2.05522 -74.9662 361.088 2.61551 -75.4596 362.753 2.32544 -75.9147 363.911 1.27619 -76.1884 364.618 -0.442903 -76.1698 364.927 -2.74449 -25.2654 229.631 2.60445 -20.4149 251.3 0.666769 -19.9682 272.068 -0.0666556 -21.9774 292.132 -0.302538 -25.2393 311.598 -0.438328 -28.9584 330.529 -0.699936 -32.5787 348.964 -1.21057 -35.6939 366.925 -2.02795 -33.3304 368.233 1.20713 -32.3255 369.122 3.12382 -32.261 369.651 3.82511 -32.8178 369.869 3.40595 -33.7487 369.817 1.95555 -34.8604 369.529 -0.441197 -36 369.04 -3.70287 -12.528 250.955 3.93531 0.811398 269.308 1.50972 7.04523 287.629 0.639317 9.29658 305.911 0.380774 9.36878 324.148 0.227426 8.39434 342.336 -0.102414 7.13496 360.467 -0.763372 6.13349 378.537 -1.83265 10.0468 376.568 2.21184 11.7972 374.562 4.61366 11.9207 372.52 5.47571 10.8188 370.444 4.88282 8.79762 368.332 2.90702 6.09408 366.187 -0.388923 2.89398 364.009 -4.94911 -266.065 13.7908 -4.38997 -286.675 -1.03122 -1.52979 -307.222 -7.80481 -0.526066 -327.693 -10.1425 -0.245695 -348.077 -10.0943 -0.0911264 -