<?xml version="1.0"?> 
<VTKFile type="StructuredGrid" version="0.1"> 
<StructuredGrid WholeExtent="0 14 0 14 0 29"> 
<Piece Extent="0 14 0 14 0 29"> 
<PointData>
<DataArray type="Float32" Name="hfield" format="ascii" NumberOfComponents="3"> 
2.69289 -151.579 -0.576529 -4.05048 -159.181 -0.667084 -7.57648 -167.297 -0.737593 -8.96463 -176.003 -0.79405 -8.88224 -185.394 -0.840275 -7.75736 -195.574 -0.878818 -5.87144 -206.673 -0.911447 -3.41176 -218.841 -0.939426 -5.94601 -214.262 -0.567042 -7.43257 -210.15 -0.241105 -7.92256 -206.504 0.046565 -7.4231 -203.332 0.302334 -5.89786 -200.655 0.53123 -3.2627 -198.508 0.737275 0.624625 -196.946 0.923731 10.6532 -138.27 -0.433813 9.27651 -147.986 -0.507656 9.65729 -157.857 -0.56537 11.2226 -168.053 -0.611239 13.6068 -178.733 -0.648155 16.5727 -190.057 -0.678144 19.966 -202.193 -0.702666 23.6885 -215.333 -0.722801 20.8664 -211.744 -0.43505 18.9023 -208.729 -0.184328 17.7508 -206.322 0.0354529 17.4003 -204.575 0.229123 17.8739 -203.56 0.400561 19.2337 -203.381 0.552918 21.591 -204.186 0.688782 20.3434 -126.691 -0.32765 22.7005 -137.517 -0.385871 25.9651 -148.313 -0.431396 29.8367 -159.279 -0.467302 34.1269 -170.595 -0.495758 38.7204 -182.441 -0.518334 43.5516 -195.004 -0.536195 48.5911 -208.494 -0.550226 45.7021 -205.536 -0.330162 43.5605 -203.232 -0.139381 42.1337 -201.64 0.0266981 41.4173 -200.843 0.171765 41.4372 -200.956 0.298823 42.2555 -202.14 0.41034 43.9817 -204.622 0.508366 30.8695 -115.947 -0.243462 35.9254 -127.302 -0.287748 41.3699 -138.514 -0.322319 47.0653 -149.784 -0.349378 52.9368 -161.298 -0.370522 58.9526 -173.24 -0.386937 65.1132 -185.804 -0.399522 71.4446 -199.206 -0.40897 68.6042 -196.619 -0.244677 66.4567 -194.738 -0.102943 64.9868 -193.637 0.0196442 64.2056 -193.42 0.125863 64.154 -194.23 0.217998 64.9114 -196.27 0.297946 66.6098 -199.833 0.367291 41.7496 -105.558 -0.173018 48.7996 -117.066 -0.204888 55.9164 -128.353 -0.229704 63.0673 -139.612 -0.248993 70.255 -151.024 -0.263882 77.5087 -162.768 -0.275224 84.8795 -175.038 -0.283675 92.4394 -188.044 -0.289747 89.7004 -185.647 -0.172904 87.6373 -183.983 -0.0725353 86.2545 -183.135 0.0137973 85.5833 -183.215 0.0880948 85.688 -184.385 0.152015 86.6768 -186.873 0.206942 88.7223 -191.012 0.254042 52.7093 -95.2482 -0.11118 61.2487 -106.636 -0.131791 69.6587 -117.751 -0.147802 77.9785 -128.771 -0.160178 86.2665 -139.864 -0.169639 94.5973 -151.202 -0.17674 103.062 -162.968 -0.181909 111.771 -175.365 -0.185486 109.151 -173.034 -0.110469 107.212 -171.446 -0.0462403 105.98 -170.68 0.00877426 105.507 -170.852 0.0558756 105.886 -172.126 0.0961465 107.259 -174.739 0.130495 109.849 -179.042 0.15969 63.5926 -84.8621 -0.0544107 73.2439 -95.9014 -0.0645279 82.6545 -106.642 -0.0723739 91.9151 -117.24 -0.0784161 101.125 -127.848 -0.0830078 110.394 -138.622 -0.0864206 119.844 -149.732 -0.0888673 129.619 -161.365 -0.0905163 127.113 -159.02 -0.0538413 125.306 -157.412 -0.0225059 124.242 -156.612 0.0042641 123.997 -156.729 0.0271098 124.687 -157.92 0.0465667 126.493 -160.415 0.063085 129.686 -164.557 0.0770462 74.3186 -74.3186 -5.46311e-11 84.7865 -84.7865 -3.46099e-11 94.9626 -94.9626 -1.82979e-11 104.975 -104.975 -4.82964e-12 114.954 -114.954 6.17221e-12 125.036 -125.036 1.5499e-11 135.369 -135.369 2.30642e-11 146.121 -146.121 2.92039e-11 143.712 -143.712 1.19796e-11 142.022 -142.022 -2.68188e-12 141.113 -141.113 -1.53996e-11 141.077 -141.077 -2.58879e-11 142.056 -142.056 -3.47641e-11 144.259 -144.259 -4.22188e-11 148.002 -148.002 -4.85543e-11 84.8621 -63.5926 0.0544107 95.9014 -73.2439 0.0645279 106.642 -82.6545 0.0723739 117.24 -91.9151 0.0784161 127.848 -101.125 0.0830078 138.622 -110.394 0.0864206 149.732 -119.844 0.0888673 161.365 -129.619 0.0905163 159.02 -127.113 0.0538413 157.412 -125.306 0.0225059 156.612 -124.242 -0.0042641 156.729 -123.997 -0.0271098 157.92 -124.687 -0.0465667 160.415 -126.493 -0.063085 164.557 -129.686 -0.0770462 95.2482 -52.7093 0.11118 106.636 -61.2487 0.131791 117.751 -69.6587 0.147802 128.771 -77.9785 0.160178 139.864 -86.2665 0.169639 151.202 -94.5973 0.17674 162.968 -103.062 0.181909 175.365 -111.771 0.185486 173.034 -109.151 0.110469 171.446 -107.212 0.0462403 170.68 -105.98 -0.00877426 170.852 -105.507 -0.0558756 172.126 -105.886 -0.0961465 174.739 -107.259 -0.130495 179.042 -109.849 -0.15969 105.558 -41.7496 0.173018 117.066 -48.7996 0.204888 128.353 -55.9164 0.229704 139.612 -63.0673 0.248993 151.024 -70.255 0.263882 162.768 -77.5087 0.275224 175.038 -84.8795 0.283675 188.044 -92.4394 0.289747 185.647 -89.7004 0.172904 183.983 -87.6373 0.0725353 183.135 -86.2545 -0.0137973 183.215 -85.5833 -0.0880948 184.385 -85.688 -0.152015 186.873 -86.6768 -0.206942 191.012 -88.7223 -0.254042 115.947 -30.8695 0.243462 127.302 -35.9254 0.287748 138.514 -41.3699 0.322319 149.784 -47.0653 0.349378 161.298 -52.9368 0.370522 173.24 -58.9526 0.386937 185.804 -65.1132 0.399522 199.206 -71.4446 0.40897 196.619 -68.6042 0.244677 194.738 -66.4567 0.102943 193.637 -64.9868 -0.0196442 193.42 -64.2056 -0.125863 194.23 -64.154 -0.217998 196.27 -64.9114 -0.297946 199.833 -66.6098 -0.367291 126.691 -20.3434 0.32765 137.517 -22.7005 0.385871 148.313 -25.9651 0.431396 159.279 -29.8367 0.467302 170.595 -34.1269 0.495758 182.441 -38.7204 0.518334 195.004 -43.5516 0.536195 208.494 -48.5911 0.550226 205.536 -45.7021 0.330162 203.232 -43.5605 0.139381 201.64 -42.1337 -0.0266981 200.843 -41.4173 -0.171765 200.956 -41.4372 -0.298823 202.14 -42.2555 -0.41034 204.622 -43.9817 -0.508366 138.27 -10.6532 0.433813 147.986 -9.27651 0.507656 157.857 -9.65729 0.56537 168.053 -11.2226 0.611239 178.733 -13.6068 0.648155 190.057 -16.5727 0.678144 202.193 -19.966 0.702666 215.333 -23.6885 0.722801 211.744 -20.8664 0.43505 208.729 -18.9023 0.184328 206.322 -17.7508 -0.0354529 204.575 -17.4003 -0.229123 203.56 -17.8739 -0.400561 203.381 -19.2337 -0.552918 204.186 -21.591 -0.688782 151.579 -2.69289 0.576529 159.181 4.05048 0.667084 167.297 7.57648 0.737593 176.003 8.96463 0.79405 185.394 8.88224 0.840275 195.574 7.75736 0.878818 206.673 5.87144 0.911447 218.841 3.41176 0.939426 214.262 5.94601 0.567042 210.15 7.43257 0.241105 206.504 7.92256 -0.0465651 203.332 7.4231 -0.302334 200.655 5.89786 -0.53123 198.508 3.2627 -0.737275 196.946 -0.624625 -0.923731 3.64197 32.8416 -1.13703 2.30231 36.313 -0.857745 1.63673 39.7987 -0.653065 1.4857 43.3241 -0.510627 1.75397 46.9157 -0.423779 2.38454 50.6019 -0.389397 3.34496 54.4135 -0.406775 4.61999 58.3845 -0.477061 3.22365 70.9638 -0.469518 1.96499 83.9452 -0.413287 0.92139 97.4593 -0.312046 0.162321 111.657 -0.170868 -0.244757 126.717 0.00408433 -0.229228 142.853 0.205686 0.287929 160.328 0.425806 -0.15523 31.4268 -0.66291 -1.46291 34.44 -0.497516 -2.27787 37.4884 -0.37578 -2.70253 40.5835 -0.293754 -2.80253 43.742 -0.249593 -2.61993 46.9847 -0.24292 -2.18075 50.3363 -0.274511 -1.49927 53.8257 -0.346141 -4.53077 66.9589 -0.321122 -7.30391 80.3826 -0.262134 -9.78377 94.239 -0.174109 -11.9382 108.691 -0.0634649 -13.7343 123.928 0.0620989 -15.1356 140.179 0.193606 -16.0986 157.725 0.320621 -3.74821 29.8079 -0.374852 -5.06965 32.466 -0.275047 -6.02325 35.1574 -0.202607 -6.67858 37.8887 -0.156702 -7.083 40.6722 -0.137303 -7.26902 43.525 -0.145032 -7.25853 46.4681 -0.181093 -7.06549 49.5266 -0.247276 -11.637 62.8139 -0.214239 -15.8889 76.2941 -0.157905 -19.8213 90.1135 -0.0836101 -23.4359 104.439 0.00190943 -26.7339 119.467 0.0906385 -29.7155 135.432 0.173212 -32.3783 152.626 0.238646 -7.15095 27.9987 -0.201004 -8.51224 30.3745 -0.140756 -9.59588 32.7704 -0.0982843 -10.4512 35.192 -0.0738506 -11.1138 37.6502 -0.0680219 -11.6099 40.16 -0.0816632 -11.9588 42.7403 -0.115955 -12.1746 45.4135 -0.172432 -18.178 58.5512 -0.138505 -23.842 71.7917 -0.0889942 -29.1965 85.2811 -0.0289434 -34.2738 99.1856 0.0353957 -39.1084 113.7 0.0966281 -43.738 129.061 0.146106 -48.2052 145.561 0.173637 -10.3712 26.007 -0.0996206 -11.7899 28.1548 -0.0640139 -12.9986 30.3033 -0.0399128 -14.0335 32.4592 -0.0278508 -14.9224 34.6334 -0.0284724 -15.6872 36.8401 -0.0425619 -16.3455 39.0966 -0.0710788 -16.9119 41.4235 -0.115201 -24.2344 54.1764 -0.0856046 -31.2267 66.948 -0.046004 -37.9445 79.8798 -0.000619365 -44.4474 93.1332 0.0453813 -50.8016 106.898 0.08591 -57.0824 121.403 0.113847 -63.3788 136.936 0.120766 -13.4135 23.8374 -0.0440668 -14.9042 25.7992 -0.0243557 -16.2377 27.7384 -0.0116002 -17.441 29.6639 -0.00626572 -18.5365 31.5874 -0.00885301 -19.543 33.5231 -0.019928 -20.4772 35.4873 -0.040151 -21.3544 37.4994 -0.0703101 -29.8825 49.6809 -0.0486813 -38.1106 61.8021 -0.021152 -46.1158 73.9974 0.00926212 -53.9827 86.4193 0.0388964 -61.8067 99.2469 0.0634465 -69.6991 112.697 0.0778776 -77.7947 127.042 0.0762172 -16.2803 21.4923 -0.0156893 -17.8583 23.3013 -0.00694934 -19.3214 25.0611 -0.00149837 -20.6903 26.7836 0.000406169 -21.9833 28.4821 -0.00150222 -23.2172 30.171 -0.00751576 -24.4081 31.8664 -0.0179685 -25.5721 33.5863 -0.0332536 -35.1929 45.0427 -0.0218853 -44.5586 56.366 -0.00779138 -53.7651 67.6805 0.00746106 -62.9186 79.1265 0.0219759 -72.141 90.8681 0.0335297 -81.5767 103.104 0.0395215 -91.4039 116.081 0.0368617 -18.9731 18.9731 -1.12674e-11 -20.6559 20.6559 -1.09035e-11 -22.2592 22.2592 -1.04903e-11 -23.7986 23.7986 -9.93895e-12 -25.2896 25.2896 -9.40339e-12 -26.7476 26.7476 -9.11227e-12 -28.1886 28.1886 -8.80407e-12 -29.6294 29.6294 -8.48388e-12 -40.2282 40.2282 -1.35465e-11 -50.6284 50.6284 -1.75224e-11 -60.9414 60.9414 -2.04927e-11 -71.2922 71.2922 -2.26688e-11 -81.8256 81.8256 -2.40397e-11 -92.7155 92.7155 -2.46662e-11 -104.178 104.178 -2.46597e-11 -21.4923 16.2803 0.0156893 -23.3013 17.8583 0.00694934 -25.0611 19.3214 0.00149837 -26.7836 20.6903 -0.000406169 -28.4821 21.9833 0.00150222 -30.171 23.2172 0.00751576 -31.8664 24.4081 0.0179685 -33.5863 25.5721 0.0332536 -45.0427 35.1929 0.0218853 -56.366 44.5586 0.00779138 -67.6805 53.7651 -0.00746106 -79.1265 62.9186 -0.0219759 -90.8681 72.141 -0.0335297 -103.104 81.5767 -0.0395215 -116.081 91.4039 -0.0368617 -23.8374 13.4135 0.0440668 -25.7992 14.9042 0.0243557 -27.7384 16.2377 0.0116002 -29.6639 17.441 0.00626572 -31.5874 18.5365 0.00885301 -33.5231 19.543 0.019928 -35.4873 20.4772 0.040151 -37.4994 21.3544 0.0703101 -49.6809 29.8825 0.0486813 -61.8021 38.1106 0.021152 -73.9974 46.1158 -0.00926212 -86.4193 53.9827 -0.0388964 -99.2469 61.8067 -0.0634465 -112.697 69.6991 -0.0778776 -127.042 77.7947 -0.0762172 -26.007 10.3712 0.0996206 -28.1548 11.7899 0.0640139 -30.3033 12.9986 0.0399128 -32.4592 14.0335 0.0278508 -34.6334 14.9224 0.0284724 -36.8401 15.6872 0.0425619 -39.0966 16.3455 0.0710788 -41.4235 16.9119 0.115201 -54.1764 24.2344 0.0856046 -66.948 31.2267 0.046004 -79.8798 37.9445 0.000619365 -93.1332 44.4474 -0.0453813 -106.898 50.8016 -0.08591 -121.403 57.0824 -0.113847 -136.936 63.3788 -0.120766 -27.9987 7.15095 0.201004 -30.3745 8.51224 0.140756 -32.7704 9.59588 0.0982843 -35.192 10.4512 0.0738506 -37.6502 11.1138 0.0680219 -40.16 11.6099 0.0816632 -42.7403 11.9588 0.115955 -45.4135 12.1746 0.172432 -58.5512 18.178 0.138505 -71.7917 23.842 0.0889942 -85.2811 29.1965 0.0289434 -99.1856 34.2738 -0.0353957 -113.7 39.1084 -0.0966281 -129.061 43.738 -0.146106 -145.561 48.2052 -0.173637 -29.8079 3.74821 0.374852 -32.466 5.06965 0.275047 -35.1574 6.02325 0.202607 -37.8887 6.67858 0.156702 -40.6722 7.083 0.137303 -43.525 7.26902 0.145032 -46.4681 7.25853 0.181093 -49.5266 7.06549 0.247276 -62.8139 11.637 0.214239 -76.2941 15.8889 0.157905 -90.1135 19.8213 0.0836101 -104.439 23.4359 -0.00190943 -119.467 26.7339 -0.0906385 -135.432 29.7155 -0.173212 -152.626 32.3783 -0.238646 -31.4268 0.15523 0.66291 -34.44 1.46291 0.497516 -37.4884 2.27787 0.37578 -40.5835 2.70253 0.293754 -43.742 2.80253 0.249593 -46.9847 2.61993 0.24292 -50.3363 2.18075 0.274511 -53.8257 1.49927 0.346141 -66.9589 4.53077 0.321122 -80.3826 7.30391 0.262134 -94.239 9.78377 0.174109 -108.691 11.9382 0.0634649 -123.928 13.7343 -0.0620989 -140.179 15.1356 -0.193606 -157.725 16.0986 -0.320621 -32.8416 -3.64197 1.13703 -36.313 -2.30231 0.857745 -39.7987 -1.63673 0.653065 -43.3241 -1.4857 0.510627 -46.9157 -1.75397 0.423779 -50.6019 -2.38454 0.389397 -54.4135 -3.34496 0.406775 -58.3845 -4.61999 0.477061 -70.9638 -3.22365 0.469518 -83.9452 -1.96499 0.413287 -97.4593 -0.92139 0.312046 -111.657 -0.162321 0.170868 -126.717 0.244757 -0.00408433 -142.853 0.229228 -0.205686 -160.328 -0.287929 -0.425806 1.0248 200.93 -4.27114 6.14823 219.419 -2.12597 7.7108 237.976 -1.00368 7.36958 256.698 -0.379657 6.12696 275.708 0.0365952 4.63992 295.155 0.410632 3.37154 315.215 0.836158 2.67324 336.099 1.36303 6.37007 340.826 -1.05202 8.16958 346.536 -2.56839 8.56927 353.423 -3.20307 7.93765 361.723 -2.95683 6.55048 371.727 -1.81092 4.61549 383.802 0.278095 2.28962 398.425 3.38602 -11.7688 184.873 -2.63101 -11.7605 204.908 -1.058 -13.9435 224.47 -0.244465 -17.2783 243.738 0.187687 -21.0947 262.868 0.458744 -24.9333 282.013 0.698174 -28.4615 301.339 0.979825 -31.4257 321.025 1.34171 -30.4509 329.297 -0.570888 -30.6666 338.055 -1.75761 -31.7075 347.519 -2.24557 -33.2971 357.935 -2.05567 -35.2237 369.584 -1.20038 -37.3225 382.802 0.318969 -39.4628 398.003 2.51577 -25.5063 169.76 -1.58452 -29.6644 190.512 -0.41452 -35.0987 210.517 0.182548 -41.1346 229.948 0.484676 -47.3151 248.947 0.660117 -53.3163 267.65 0.810117 -58.9007 286.193 0.992796 -63.8873 304.725 1.23729 -65.584 315.449 -0.2519 -67.9009 326.238 -1.16612 -70.5822 337.306 -1.53659 -73.4347 348.878 -1.39383 -76.3123 361.2 -0.76594 -79.1034 374.557 0.322925 -81.7227 389.287 1.85433 -39.7417 155.144 -0.920555 -47.3916 176.012 -0.0581244 -55.6783 196.011 0.37658 -64.1521 215.274 0.586647 -72.4966 233.911 0.698546 -80.4831 252.026 0.789767 -87.9429 269.725 0.905027 -94.7496 287.121 1.0663 -98.981 299.385 -0.0597589 -103.374 311.377 -0.744761 -107.761 323.282 -1.01918 -112.019 335.292 -0.915388 -116.059 347.612 -0.466315 -119.821 360.47 0.295688 -123.264 374.132 1.33975 -54.2128 140.765 -0.50779 -64.8343 161.272 0.102967 -75.6302 180.884 0.40774 -86.2952 199.682 0.549322 -96.6092 217.737 0.618497 -106.411 235.118 0.671636 -115.584 251.898 0.741413 -124.043 268.16 0.843662 -130.603 281.193 0.035793 -136.964 293.702 -0.452018 -143.027 305.837 -0.645773 -148.726 317.752 -0.574151 -154.019 329.608 -0.267402 -158.888 341.585 0.243465 -163.332 353.885 0.927273 -68.7617 126.463 -0.25776 -81.9243 146.204 0.134287 -94.9182 165.09 0.328512 -107.537 183.15 0.416076 -119.628 200.413 0.455762 -131.082 216.912 0.484408 -141.822 232.689 0.523436 -151.794 247.798 0.583133 -160.418 260.943 0.0615402 -168.572 273.399 -0.251695 -176.211 285.28 -0.375383 -183.314 296.701 -0.330646 -189.879 307.786 -0.140124 -195.921 318.672 0.172593 -201.471 329.509 0.583353 -83.2943 112.145 -0.105781 -98.6197 130.757 0.0860683 -113.518 148.606 0.180703 -127.855 165.669 0.22258 -141.532 181.935 0.240603 -154.479 197.402 0.252986 -166.651 212.083 0.270338 -178.024 226.005 0.297729 -188.393 238.695 0.0419365 -198.108 250.62 -0.111163 -207.169 261.856 -0.171413 -215.59 272.485 -0.149958 -223.402 282.597 -0.0588255 -230.65 292.292 0.0893692 -237.39 301.683 0.281627 -97.7606 97.7606 -1.97247e-11 -114.899 114.899 -1.93142e-11 -131.416 131.416 -1.88402e-11 -147.236 147.236 -1.83047e-11 -162.305 162.305 -1.77038e-11 -176.589 176.589 -1.7065e-11 -190.072 190.072 -1.66063e-11 -202.754 202.754 -1.61151e-11 -214.498 214.498 -1.74936e-11 -225.488 225.488 -1.82201e-11 -235.765 235.765 -1.86322e-11 -245.376 245.376 -1.85754e-11 -254.381 254.381 -1.81295e-11 -262.852 262.852 -1.73053e-11 -270.872 270.872 -1.6214e-11 -112.145 83.2943 0.105781 -130.757 98.6197 -0.0860683 -148.606 113.518 -0.180703 -165.669 127.855 -0.22258 -181.935 141.532 -0.240603 -197.402 154.479 -0.252986 -212.083 166.651 -0.270338 -226.005 178.024 -0.297729 -238.695 188.393 -0.0419365 -250.62 198.108 0.111163 -261.856 207.169 0.171413 -272.485 215.59 0.149958 -282.597 223.402 0.0588255 -292.292 230.65 -0.0893692 -301.683 237.39 -0.281627 -126.463 68.7617 0.25776 -146.204 81.9243 -0.134287 -165.09 94.9182 -0.328512 -183.15 107.537 -0.416076 -200.413 119.628 -0.455762 -216.912 131.082 -0.484408 -232.689 141.822 -0.523436 -247.798 151.794 -0.583133 -260.943 160.418 -0.0615402 -273.399 168.572 0.251695 -285.28 176.211 0.375383 -296.701 183.314 0.330646 -307.786 189.879 0.140124 -318.672 195.921 -0.172593 -329.509 201.471 -0.583353 -140.765 54.2128 0.50779 -161.272 64.8343 -0.102967 -180.884 75.6302 -0.40774 -199.682 86.2952 -0.549322 -217.737 96.6092 -0.618497 -235.118 106.411 -0.671636 -251.898 115.584 -0.741413 -268.16 124.043 -0.843662 -281.193 130.603 -0.035793 -293.702 136.964 0.452018 -305.837 143.027 0.645773 -317.752 148.726 0.574151 -329.608 154.019 0.267402 -341.585 158.888 -0.243465 -353.885 163.332 -0.927273 -155.144 39.7417 0.920555 -176.012 47.3916 0.0581244 -196.011 55.6783 -0.37658 -215.274 64.1521 -0.586647 -233.911 72.4966 -0.698546 -252.026 80.4831 -0.789767 -269.725 87.9429 -0.905027 -287.121 94.7496 -1.0663 -299.385 98.981 0.0597589 -311.377 103.374 0.744761 -323.282 107.761 1.01918 -335.292 112.019 0.915388 -347.612 116.059 0.466315 -360.47 119.821 -0.295688 -374.132 123.264 -1.33975 -169.76 25.5063 1.58452 -190.512 29.6644 0.41452 -210.517 35.0987 -0.182548 -229.948 41.1346 -0.484676 -248.947 47.3151 -0.660117 -267.65 53.3163 -0.810117 -286.193 58.9007 -0.992796 -304.725 63.8873 -1.23729 -315.449 65.584 0.2519 -326.238 67.9009 1.16612 -337.306 70.5822 1.53659 -348.878 73.4347 1.39383 -361.2 76.3123 0.76594 -374.557 79.1034 -0.322925 -389.287 81.7227 -1.85433 -184.873 11.7688 2.63101 -204.908 11.7605 1.058 -224.47 13.9435 0.244465 -243.738 17.2783 -0.187687 -262.868 21.0947 -0.458744 -282.013 24.9333 -0.698174 -301.339 28.4615 -0.979825 -321.025 31.4257 -1.34171 -329.297 30.4509 0.570888 -338.055 30.6666 1.75761 -347.519 31.7075 2.24557 -357.935 33.2971 2.05567 -369.584 35.2237 1.20038 -382.802 37.3225 -0.318969 -398.003 39.4628 -2.51577 -200.93 -1.0248 4.27114 -219.419 -6.14823 2.12597 -237.976 -7.7108 1.00368 -256.698 -7.36958 0.379657 -275.708 -6.12696 -0.0365952 -295.155 -4.63992 -0.410632 -315.215 -3.37154 -0.836158 -336.099 -2.67324 -1.36303 -340.826 -6.37007 1.05202 -346.536 -8.16958 2.56839 -353.423 -8.56927 3.20307 -361.723 -7.93765 2.95683 -371.727 -6.55048 1.81092 -383.802 -4.61549 -0.278095 -398.425 -2.28962 -3.38602 -14.3031 285.63 -4.90152 0.510992 307.628 -2.0767 7.34583 330.116 -0.854956 9.65438 353.193 -0.341174 9.44952 376.962 -0.0452738 8.00628 401.535 0.313331 6.19439 427.032 0.897665 4.65065 453.585 1.80014 10.6093 454.471 -2.1513 13.7388 456.048 -4.61233 14.6271 458.35 -5.60801 13.6992 461.418 -5.13794 11.2628 465.305 -3.178 7.53836 470.074 0.319521 2.68002 475.8 5.4271 -27.6633 260.229 -3.10994 -22.3285 285.495 -0.947683 -22.0259 310.204 0.00245908 -24.6105 334.677 0.397177 -28.7517 359.143 0.613048 -33.5658 383.782 0.870822 -38.4295 408.756 1.2984 -42.8771 434.215 1.965 -39.7925 439.417 -1.17235 -38.5759 444.921 -3.1143 -38.7667 450.847 -3.90353 -40.0182 457.317 -3.57065 -42.0666 464.458 -2.13455 -44.7094 472.409 0.39805 -47.7904 481.329 4.0339 -43.3545 237.159 -1.94491 -45.4419 264.142 -0.280247 -50.6005 290.038 0.462273 -57.465 315.205 0.769479 -65.1468 339.891 0.930101 -73.0343 364.29 1.1163 -80.686 388.561 1.42748 -87.7684 412.855 1.91529 -87.4891 421.022 -0.535367 -88.3248 429.146 -2.0444 -89.9353 437.389 -2.66116 -92.0619 445.913 -2.43063 -94.5056 454.886 -1.39286 -97.1135 464.494 0.417872 -99.7674 474.945 2.97432 -60.4759 215.52 -1.18575 -68.5428 243.138 0.074281 -78.3216 269.43 0.64387 -88.9348 294.71 0.879785 -99.7892 319.202 0.998858 -110.467 343.075 1.13198 -120.66 366.472 1.35448 -130.14 389.526 1.70417 -132.5 399.568 -0.155241 -135.385 409.283 -1.29538 -138.562 418.845 -1.76418 -141.858 428.431 -1.60918 -145.148 438.226 -0.876596 -148.341 448.437 0.389745 -151.378 459.301 2.14953 -78.4953 194.778 -0.694151 -91.4588 222.205 0.215694 -105.163 248.245 0.631532 -119.05 273.142 0.804363 -132.731 297.066 0.889408 -145.927 320.149 0.981179 -158.435 342.504 1.13392 -170.103 364.239 1.37412 -174.865 375.264 0.0358806 -179.693 385.752 -0.782027 -184.45 395.869 -1.12022 -189.042 405.787 -1.0206 -193.414 415.69 -0.525333 -197.54 425.79 0.324138 -201.428 436.333 1.48805 -97.0896 174.612 -0.37634 -114.088 201.16 0.21545 -131.119 226.391 0.488135 -147.843 250.458 0.601897 -164.019 273.469 0.656946 -179.475 295.51 0.714656 -194.084 316.658 0.810175 -207.761 336.99 0.960325 -214.629 348.261 0.0940856 -221.22 358.865 -0.43413 -227.477 368.946 -0.653532 -233.375 378.659 -0.59486 -238.923 388.174 -0.289542 -244.159 397.69 0.231046 -249.154 407.447 0.936283 -116.066 154.827 -0.163431 -136.376 179.885 0.128381 -156.195 203.798 0.263514 -175.346 226.62 0.320045 -193.7 248.393 0.347145 -211.165 269.148 0.375028 -227.678 288.923 0.420974 -243.205 307.761 0.493155 -251.833 318.656 0.0676362 -259.945 328.843 -0.191482 -267.549 338.431 -0.299428 -274.681 347.545 -0.272379 -281.405 356.33 -0.127 -287.815 364.961 0.119966 -294.04 373.655 0.452053 -135.323 135.323 -2.19575e-11 -158.305 158.305 -1.86638e-11 -180.412 180.412 -1.70599e-11 -201.594 201.594 -1.64537e-11 -221.813 221.813 -1.63554e-11 -241.043 241.043 -1.65365e-11 -259.275 259.275 -1.67368e-11 -276.516 276.516 -1.69411e-11 -286.506 286.506 -1.57545e-11 -295.837 295.837 -1.39941e-11 -304.574 304.574 -1.14433e-11 -312.8 312.8 -8.17657e-12 -320.627 320.627 -3.81561e-12 -328.194 328.194 1.60227e-12 -335.679 335.679 8.02149e-12 -154.827 116.066 0.163431 -179.885 136.376 -0.128381 -203.798 156.195 -0.263514 -226.62 175.346 -0.320045 -248.393 193.7 -0.347145 -269.148 211.165 -0.375028 -288.923 227.678 -0.420974 -307.761 243.205 -0.493155 -318.656 251.833 -0.0676362 -328.843 259.945 0.191482 -338.431 267.549 0.299428 -347.545 274.681 0.272379 -356.33 281.405 0.127 -364.961 287.815 -0.119966 -373.655 294.04 -0.452053 -174.612 97.0896 0.37634 -201.16 114.088 -0.21545 -226.391 131.119 -0.488135 -250.458 147.843 -0.601897 -273.469 164.019 -0.656946 -295.51 179.475 -0.714656 -316.658 194.084 -0.810175 -336.99 207.761 -0.960325 -348.261 214.629 -0.0940856 -358.865 221.22 0.43413 -368.946 227.477 0.653532 -378.659 233.375 0.59486 -388.174 238.923 0.289542 -397.69 244.159 -0.231046 -407.447 249.154 -0.936283 -194.778 78.4953 0.694151 -222.205 91.4588 -0.215694 -248.245 105.163 -0.631532 -273.142 119.05 -0.804363 -297.066 132.731 -0.889408 -320.149 145.927 -0.981179 -342.504 158.435 -1.13392 -364.239 170.103 -1.37412 -375.264 174.865 -0.0358806 -385.752 179.693 0.782027 -395.869 184.45 1.12022 -405.787 189.042 1.0206 -415.69 193.414 0.525333 -425.79 197.54 -0.324138 -436.333 201.428 -1.48805 -215.52 60.4759 1.18575 -243.138 68.5428 -0.074281 -269.43 78.3216 -0.64387 -294.71 88.9348 -0.879785 -319.202 99.7892 -0.998858 -343.075 110.467 -1.13198 -366.472 120.66 -1.35448 -389.526 130.14 -1.70417 -399.568 132.5 0.155241 -409.283 135.385 1.29538 -418.845 138.562 1.76418 -428.431 141.858 1.60918 -438.226 145.148 0.876596 -448.437 148.341 -0.389745 -459.301 151.378 -2.14953 -237.159 43.3545 1.94491 -264.142 45.4419 0.280247 -290.038 50.6005 -0.462273 -315.205 57.465 -0.769479 -339.891 65.1468 -0.930101 -364.29 73.0343 -1.1163 -388.561 80.686 -1.42748 -412.855 87.7684 -1.91529 -421.022 87.4891 0.535367 -429.146 88.3248 2.0444 -437.389 89.9353 2.66116 -445.913 92.0619 2.43063 -454.886 94.5056 1.39286 -464.494 97.1135 -0.417872 -474.945 99.7674 -2.97432 -260.229 27.6633 3.10994 -285.495 22.3285 0.947683 -310.204 22.0259 -0.00245908 -334.677 24.6105 -0.397177 -359.143 28.7517 -0.613048 -383.782 33.5658 -0.870822 -408.756 38.4295 -1.2984 -434.215 42.8771 -1.965 -439.417 39.7925 1.17235 -444.921 38.5759 3.1143 -450.847 38.7667 3.90353 -457.317 40.0182 3.57065 -464.458 42.0666 2.13455 -472.409 44.7094 -0.39805 -481.329 47.7904 -4.0339 -285.63 14.3031 4.90152 -307.628 -0.510992 2.0767 -330.116 -7.34583 0.854956 -353.193 -9.65438 0.341174 -376.962 -9.44952 0.0452738 -401.535 -8.00628 -0.313331 -427.032 -6.19439 -0.897665 -453.585 -4.65065 -1.80014 -454.471 -10.6093 2.1513 -456.048 -13.7388 4.61233 -458.35 -14.6271 5.60801 -461.418 -13.6992 5.13794 -465.305 -11.2628 3.178 -470.074 -7.53836 -0.319521 -475.8 -2.68002 -5.4271 -24.2233 355.551 -5.76649 -3.31401 382.979 -2.08928 6.48535 410.948 -0.648568 9.99569 439.567 -0.13974 9.9849 468.948 0.141719 8.18371 499.212 0.594666 5.75805 530.488 1.4484 3.5501 562.918 2.83131 11.2106 561.118 -2.64432 15.4409 560.01 -6.02846 16.9389 559.612 -7.38568 16.2046 559.951 -6.74067 13.5962 561.058 -4.08327 9.3671 562.976 0.629319 3.68995 565.755 7.47222 -39.3302 323.326 -3.84078 -31.075 355.269 -0.935476 -29.8695 386.371 0.249038 -32.7109 417.055 0.683681 -37.7627 447.611 0.917934 -43.8201 478.262 1.2703 -50.0429 509.195 1.92324 -55.8105 540.586 2.97402 -51.1676 543.804 -1.39103 -48.8243 547.272 -4.07515 -48.2295 551.114 -5.15979 -48.9719 555.453 -4.70513 -50.7417 560.411 -2.75251 -53.3041 566.119 0.674858 -56.4813 572.724 5.57232 -57.5891 294.252 -2.54579 -59.2327 328.612 -0.254193 -65.2171 361.442 0.713063 -73.6273 393.223 1.08217 -83.2332 424.281 1.27846 -93.1973 454.856 1.55277 -102.921 485.147 2.04831 -111.957 515.327 2.83824 -110.302 522.039 -0.583143 -110.052 528.61 -2.67811 -110.796 535.219 -3.53151 -112.224 542.04 -3.2181 -114.1 549.247 -1.80316 -116.243 557.025 0.657674 -118.515 565.581 4.11936 -77.8269 267.157 -1.66103 -87.4334 302.463 0.105204 -99.5 335.942 0.872224 -112.794 368.023 1.17516 -126.492 398.995 1.3354 -140.019 429.077 1.54488 -152.957 458.444 1.91284 -164.992 487.253 2.49313 -166.173 496.221 -0.110216 -168.048 504.73 -1.69886 -170.336 512.978 -2.35107 -172.826 521.158 -2.14131 -175.365 529.468 -1.13982 -177.842 538.123 0.588084 -180.182 547.364 2.98306 -99.3471 241.345 -1.04745 -115.462 276.475 0.24459 -132.693 309.722 0.818122 -150.253 341.415 1.0509 -167.602 371.779 1.17388 -184.355 400.981 1.32624 -200.23 429.16 1.58698 -215.019 456.443 1.99398 -218.79 466.651 0.116106 -222.699 476.17 -1.02684 -226.575 485.189 -1.49932 -230.302 493.901 -1.36508 -233.806 502.505 -0.686388 -237.052 511.224 0.476884 -240.037 520.314 2.0682 -121.725 216.391 -0.610388 -143.193 250.415 0.237362 -164.792 282.671 0.619539 -186.047 313.365 0.7777 -206.619 342.639 0.861297 -226.266 370.6 0.960944 -244.813 397.34 1.12796 -262.134 422.948 1.38649 -268.177 433.552 0.168971 -273.933 443.332 -0.5707 -279.328 452.453 -0.878122 -284.328 461.088 -0.799353 -288.933 469.424 -0.380137 -293.179 477.673 0.334837 -297.134 486.086 1.30268 -144.709 192.041 -0.280014 -170.557 224.133 0.140117 -195.81 254.708 0.331264 -220.216 283.838 0.41129 -243.593 311.573 0.453621 -265.808 337.949 0.502927 -286.77 363.005 0.584482 -306.423 386.788 0.710024 -314.353 397.077 0.111359 -321.694 406.511 -0.251947 -328.451 415.217 -0.403463 -334.661 423.332 -0.367243 -340.389 431.017 -0.16737 -345.731 438.458 0.17246 -350.822 445.884 0.629343 -168.162 168.162 -2.09379e-11 -197.532 197.532 -1.3511e-11 -225.77 225.77 -8.91637e-12 -252.801 252.801 -6.08913e-12 -278.566 278.566 -4.39426e-12 -303.025 303.025 -3.42393e-12 -326.155 326.155 -2.85461e-12 -347.957 347.957 -2.33591e-12 -357.326 357.326 1.6307e-12 -365.918 365.918 5.49605e-12 -373.805 373.805 9.49996e-12 -381.08 381.08 1.35465e-11 -387.862 387.862 1.82183e-11 -394.3 394.3 2.34319e-11 -400.58 400.58 2.92901e-11 -192.041 144.709 0.280014 -224.133 170.557 -0.140117 -254.708 195.81 -0.331264 -283.838 220.216 -0.41129 -311.573 243.593 -0.453621 -337.949 265.808 -0.502927 -363.005 286.77 -0.584482 -386.788 306.423 -0.710024 -397.077 314.353 -0.111359 -406.511 321.694 0.251947 -415.217 328.451 0.403463 -423.332 334.661 0.367243 -431.017 340.389 0.16737 -438.458 345.731 -0.17246 -445.884 350.822 -0.629343 -216.391 121.725 0.610388 -250.415 143.193 -0.237362 -282.671 164.792 -0.619539 -313.365 186.047 -0.7777 -342.639 206.619 -0.861297 -370.6 226.266 -0.960944 -397.34 244.813 -1.12796 -422.948 262.134 -1.38649 -433.552 268.177 -0.168971 -443.332 273.933 0.5707 -452.453 279.328 0.878122 -461.088 284.328 0.799353 -469.424 288.933 0.380137 -477.673 293.179 -0.334837 -486.086 297.134 -1.30268 -241.345 99.3471 1.04745 -276.475 115.462 -0.24459 -309.722 132.693 -0.818122 -341.415 150.253 -1.0509 -371.779 167.602 -1.17388 -400.981 184.355 -1.32624 -429.16 200.23 -1.58698 -456.443 215.019 -1.99398 -466.651 218.79 -0.116106 -476.17 222.699 1.02684 -485.189 226.575 1.49932 -493.901 230.302 1.36508 -502.505 233.806 0.686388 -511.224 237.052 -0.476884 -520.314 240.037 -2.0682 -267.157 77.8269 1.66103 -302.463 87.4334 -0.105204 -335.942 99.5 -0.872224 -368.023 112.794 -1.17516 -398.995 126.492 -1.3354 -429.077 140.019 -1.54488 -458.444 152.957 -1.91284 -487.253 164.992 -2.49313 -496.221 166.173 0.110216 -504.73 168.048 1.69886 -512.978 170.336 2.35107 -521.158 172.826 2.14131 -529.468 175.365 1.13982 -538.123 177.842 -0.588084 -547.364 180.182 -2.98306 -294.252 57.5891 2.54579 -328.612 59.2327 0.254193 -361.442 65.2171 -0.713063 -393.223 73.6273 -1.08217 -424.281 83.2332 -1.27846 -454.856 93.1973 -1.55277 -485.147 102.921 -2.04831 -515.327 111.957 -2.83824 -522.039 110.302 0.583143 -528.61 110.052 2.67811 -535.219 110.796 3.53151 -542.04 112.224 3.2181 -549.247 114.1 1.80316 -557.025 116.243 -0.657674 -565.581 118.515 -4.11936 -323.326 39.3302 3.84078 -355.269 31.075 0.935476 -386.371 29.8695 -0.249038 -417.055 32.7109 -0.683681 -447.611 37.7627 -0.917934 -478.262 43.8201 -1.2703 -509.195 50.0429 -1.92324 -540.586 55.8105 -2.97402 -543.804 51.1676 1.39103 -547.272 48.8243 4.07515 -551.114 48.2295 5.15979 -555.453 48.9719 4.70513 -560.411 50.7417 2.75251 -566.119 53.3041 -0.674858 -572.724 56.4813 -5.57232 -355.551 24.2233 5.76649 -382.979 3.31401 2.08928 -410.948 -6.48535 0.648568 -439.567 -9.99569 0.13974 -468.948 -9.9849 -0.141719 -499.212 -8.18371 -0.594666 -530.488 -5.75805 -1.4484 -562.918 -3.5501 -2.83131 -561.118 -11.2106 2.64432 -560.01 -15.4409 6.02846 -559.612 -16.9389 7.38568 -559.951 -16.2046 6.74067 -561.058 -13.5962 4.08327 -562.976 -9.3671 -0.629319 -565.755 -3.68995 -7.47222 -28.935 420.264 -6.92346 -2.65372 452.706 -2.32427 9.52009 485.713 -0.666729 13.7646 519.397 -0.179