<?xml version="1.0"?> 
<VTKFile type="StructuredGrid" version="0.1"> 
<StructuredGrid WholeExtent="0 14 0 14 0 29"> 
<Piece Extent="0 14 0 14 0 29"> 
<PointData>
<DataArray type="Float32" Name="hfield" format="ascii" NumberOfComponents="3"> 
2160.77 70.4502 2.84672e-10 2233.53 -41.1915 3.98603e-10 2306.28 -105.325 4.87053e-10 2379.04 -138.039 5.57385e-10 2451.79 -149.298 6.1379e-10 2524.55 -145.602 6.61968e-10 2597.3 -131.372 6.94698e-10 2670.06 -109.72 7.32813e-10 2621.46 -119.159 7.81724e-10 2572.86 -118.276 8.28424e-10 2524.27 -108.526 8.69575e-10 2475.67 -91.0297 9.04946e-10 2427.07 -66.6667 9.3743e-10 2378.47 -36.136 9.65954e-10 2329.88 0 9.92399e-10 1997.47 205.764 2.70263e-10 2099.55 160.396 3.71167e-10 2197.11 142.358 4.45834e-10 2291.28 142.515 5.07986e-10 2382.79 154.881 5.53563e-10 2472.16 175.374 5.96715e-10 2559.74 201.117 6.24058e-10 2645.79 230.03 6.50182e-10 2610.24 215.33 6.96571e-10 2574.11 207.844 7.2591e-10 2537.52 206.469 7.56594e-10 2500.58 210.335 7.83631e-10 2463.37 218.749 8.05994e-10 2425.97 231.151 8.26938e-10 2388.42 247.08 8.37869e-10 1849.65 356.567 2.65517e-10 1967.97 358.862 3.50322e-10 2079.87 376.193 4.15144e-10 2186.71 403.148 4.66967e-10 2289.4 436.042 5.08342e-10 2388.59 472.291 5.37992e-10 2484.76 510.033 5.66922e-10 2578.26 547.903 5.86722e-10 2551.69 530.902 6.20039e-10 2524.13 518.726 6.46857e-10 2495.79 510.566 6.68995e-10 2466.82 505.778 6.82636e-10 2437.36 503.842 6.96947e-10 2407.5 504.332 7.07353e-10 2377.32 506.899 7.16282e-10 1708.39 513.918 2.65987e-10 1834.85 551.784 3.40586e-10 1954.16 596.807 3.96791e-10 2067.54 645.736 4.42668e-10 2175.9 696.307 4.76045e-10 2279.85 746.908 5.04974e-10 2379.89 796.368 5.24711e-10 2476.39 843.827 5.39959e-10 2455.65 826.265 5.65594e-10 2433.69 811.706 5.85724e-10 2410.74 799.586 6.02981e-10 2386.95 789.45 6.16514e-10 2362.48 780.931 6.23335e-10 2337.44 773.729 6.2914e-10 2311.91 767.595 6.30054e-10 1568.75 672.901 2.69905e-10 1697.84 737.895 3.33884e-10 1819.59 804.827 3.83312e-10 1935.04 871.795 4.23486e-10 2044.94 937.461 4.51309e-10 2149.85 1000.87 4.73408e-10 2250.19 1061.34 4.89304e-10 2346.32 1118.36 5.02373e-10 2329.08 1101.18 5.21635e-10 2310.54 1085.62 5.36406e-10 2290.89 1071.32 5.45063e-10 2270.29 1057.98 5.53946e-10 2248.88 1045.36 5.57293e-10 2226.76 1033.27 5.59267e-10 2204.03 1021.55 5.59274e-10 1427.92 830.685 2.77244e-10 1555.44 916.561 3.34275e-10 1675.83 1000.86 3.7678e-10 1789.87 1082.57 4.08695e-10 1898.12 1160.99 4.34591e-10 2001.05 1235.64 4.53256e-10 2098.98 1306.15 4.67612e-10 2192.19 1372.3 4.75623e-10 2176.78 1355.92 4.89964e-10 2160.11 1340.12 5.00798e-10 2142.33 1324.7 5.08687e-10 2123.59 1309.5 5.1265e-10 2103.98 1294.38 5.14849e-10 2083.6 1279.23 5.11973e-10 2062.53 1263.98 5.11018e-10 1284.26 985.641 2.88038e-10 1406.65 1087.53 3.37973e-10 1522.49 1185.47 3.75061e-10 1632.25 1279.07 4.0374e-10 1736.28 1368.1 4.24312e-10 1834.88 1452.38 4.40079e-10 1928.26 1531.84 4.50402e-10 2016.65 1606.41 4.56299e-10 2001.88 1590.88 4.68102e-10 1986.05 1575.17 4.75247e-10 1969.25 1559.2 4.80133e-10 1951.56 1542.92 4.8151e-10 1933.06 1526.28 4.80704e-10 1913.81 1509.24 4.77045e-10 1893.85 1491.77 4.72657e-10 1136.92 1136.92 3.02503e-10 1250.82 1250.82 3.45802e-10 1359.19 1359.19 3.78419e-10 1462.11 1462.11 4.02782e-10 1559.67 1559.67 4.203e-10 1651.98 1651.98 4.32638e-10 1739.12 1739.12 4.40708e-10 1821.18 1821.18 4.4503e-10 1806.27 1806.27 4.53544e-10 1790.66 1790.66 4.5866e-10 1774.34 1774.34 4.60738e-10 1757.35 1757.35 4.60386e-10 1739.71 1739.71 4.58087e-10 1721.43 1721.43 4.54163e-10 1702.54 1702.54 4.48686e-10 985.641 1284.26 2.58859e-10 1087.53 1406.65 2.91332e-10 1185.47 1522.49 3.15943e-10 1279.07 1632.25 3.33965e-10 1368.1 1736.28 3.46547e-10 1452.38 1834.88 3.55662e-10 1531.84 1928.26 3.61531e-10 1606.41 2016.65 3.64402e-10 1590.88 2001.88 3.74559e-10 1575.17 1986.05 3.82655e-10 1559.2 1969.25 3.86995e-10 1542.92 1951.56 3.89052e-10 1526.28 1933.06 3.88623e-10 1509.24 1913.81 3.87283e-10 1491.77 1893.85 3.84688e-10 830.685 1427.92 2.17447e-10 916.561 1555.44 2.39319e-10 1000.86 1675.83 2.56306e-10 1082.57 1789.87 2.68821e-10 1160.99 1898.12 2.76931e-10 1235.64 2001.05 2.82331e-10 1306.15 2098.98 2.85995e-10 1372.3 2192.19 2.86441e-10 1355.92 2176.78 3.01776e-10 1340.12 2160.11 3.10045e-10 1324.7 2142.33 3.17581e-10 1309.5 2123.59 3.238e-10 1294.38 2103.98 3.25943e-10 1279.23 2083.6 3.25167e-10 1263.98 2062.53 3.25754e-10 672.901 1568.75 1.7691e-10 737.895 1697.84 1.8782e-10 804.827 1819.59 1.96664e-10 871.795 1935.04 2.00828e-10 937.461 2044.94 2.0653e-10 1000.87 2149.85 2.0776e-10 1061.34 2250.19 2.11039e-10 1118.36 2346.32 2.10075e-10 1101.18 2329.08 2.27217e-10 1085.62 2310.54 2.40225e-10 1071.32 2290.89 2.50362e-10 1057.98 2270.29 2.57539e-10 1045.36 2248.88 2.64811e-10 1033.27 2226.76 2.69341e-10 1021.55 2204.03 2.72041e-10 513.918 1708.39 1.35091e-10 551.784 1834.85 1.33937e-10 596.807 1954.16 1.34383e-10 645.736 2067.54 1.33629e-10 696.307 2175.9 1.31533e-10 746.908 2279.85 1.29504e-10 796.368 2379.89 1.28371e-10 843.827 2476.39 1.26994e-10 826.265 2455.65 1.4682e-10 811.706 2433.69 1.63155e-10 799.586 2410.74 1.7654e-10 789.45 2386.95 1.86304e-10 780.931 2362.48 1.98684e-10 773.729 2337.44 2.0597e-10 767.595 2311.91 2.11707e-10 356.567 1849.65 8.92005e-11 358.862 1967.97 7.77101e-11 376.193 2079.87 6.72142e-11 403.148 2186.71 5.80501e-11 436.042 2289.4 5.08059e-11 472.291 2388.59 4.70049e-11 510.033 2484.76 4.11647e-11 547.903 2578.26 3.61814e-11 530.902 2551.69 5.56226e-11 518.726 2524.13 7.56941e-11 510.566 2495.79 8.97248e-11 505.778 2466.82 1.07519e-10 503.842 2437.36 1.1892e-10 504.332 2407.5 1.28295e-10 506.899 2377.32 1.37714e-10 205.764 1997.47 3.74377e-11 160.396 2099.55 9.05524e-12 142.358 2197.11 -1.04166e-11 142.515 2291.28 -3.09322e-11 154.881 2382.79 -4.18962e-11 175.374 2472.16 -5.43465e-11 201.117 2559.74 -6.05302e-11 230.03 2645.79 -7.34807e-11 215.33 2610.24 -4.30669e-11 207.844 2574.11 -2.16339e-11 206.469 2537.52 2.16322e-12 210.335 2500.58 1.66585e-11 218.749 2463.37 3.71e-11 231.151 2425.97 4.58381e-11 247.08 2388.42 5.81427e-11 70.4502 2160.77 -2.72848e-11 -41.1915 2233.53 -7.15825e-11 -105.325 2306.28 -1.05236e-10 -138.039 2379.04 -1.33333e-10 -149.298 2451.79 -1.5495e-10 -145.602 2524.55 -1.74479e-10 -131.372 2597.3 -1.83221e-10 -109.72 2670.06 -2.01895e-10 -119.159 2621.46 -1.67417e-10 -118.276 2572.86 -1.41145e-10 -108.526 2524.27 -1.17821e-10 -91.0297 2475.67 -9.75419e-11 -66.6667 2427.07 -7.89236e-11 -36.136 2378.47 -6.21435e-11 5.86238e-13 2329.88 -4.78892e-11 1807.5 58.932 -1.19735e-09 1868.36 -34.4569 -7.69884e-10 1929.22 -88.1046 -4.41916e-10 1990.08 -115.47 -1.82636e-10 2050.94 -124.888 2.73212e-11 2111.8 -121.796 2.00039e-10 2172.66 -109.893 3.47086e-10 2233.52 -91.7813 4.71232e-10 2192.86 -99.677 4.86892e-10 2152.21 -98.9386 5.00016e-10 2111.56 -90.7825 5.1442e-10 2070.91 -76.1468 5.24763e-10 2030.26 -55.767 5.3396e-10 1989.61 -30.2279 5.40012e-10 1948.95 -3.67793e-13 5.49842e-10 1670.89 172.122 -8.84669e-10 1756.28 134.172 -5.63709e-10 1837.89 119.083 -3.14747e-10 1916.66 119.215 -1.12414e-10 1993.22 129.559 4.90852e-11 2067.97 146.701 1.86181e-10 2141.23 168.235 2.9978e-10 2213.21 192.422 3.97232e-10 2183.48 180.125 4.09157e-10 2153.25 173.863 4.18619e-10 2122.65 172.712 4.28563e-10 2091.75 175.946 4.4135e-10 2060.62 182.985 4.44964e-10 2029.33 193.359 4.52338e-10 1997.93 206.684 4.55663e-10 1547.24 298.27 -6.46838e-10 1646.21 300.189 -4.04048e-10 1739.82 314.688 -2.10681e-10 1829.19 337.235 -5.34547e-11 1915.1 364.752 7.24526e-11 1998.07 395.073 1.79021e-10 2078.52 426.645 2.66809e-10 2156.73 458.324 3.40253e-10 2134.5 444.102 3.49522e-10 2111.45 433.916 3.58595e-10 2087.74 427.091 3.67141e-10 2063.51 423.086 3.73735e-10 2038.86 421.466 3.76496e-10 2013.88 421.876 3.7801e-10 1988.64 424.024 3.81924e-10 1429.07 429.895 -4.55143e-10 1534.86 461.57 -2.70856e-10 1634.66 499.232 -1.23786e-10 1729.51 540.161 -3.30945e-12 1820.15 582.464 9.31159e-11 1907.11 624.792 1.75589e-10 1990.79 666.166 2.40614e-10 2071.51 705.865 2.95778e-10 2054.16 691.175 3.05337e-10 2035.79 678.996 3.12939e-10 2016.59 668.857 3.18434e-10 1996.7 660.379 3.23296e-10 1976.23 653.253 3.2461e-10 1955.28 647.228 3.25684e-10 1933.93 642.097 3.24994e-10 1312.27 562.885 -2.91488e-10 1420.25 617.253 -1.56455e-10 1522.1 673.241 -4.90257e-11 1618.67 729.26 3.95289e-11 1710.6 784.191 1.11383e-10 1798.36 837.235 1.69283e-10 1882.3 887.815 2.19064e-10 1962.71 935.512 2.57827e-10 1948.29 921.141 2.6648e-10 1932.78 908.126 2.74745e-10 1916.34 896.162 2.79839e-10 1899.11 885.002 2.84043e-10 1881.19 874.447 2.85398e-10 1862.69 864.335 2.84654e-10 1843.68 854.533 2.86033e-10 1194.46 694.872 -1.46103e-10 1301.13 766.707 -5.31478e-11 1401.84 837.222 2.14892e-11 1497.23 905.574 8.09338e-11 1587.79 971.176 1.30333e-10 1673.88 1033.61 1.70138e-10 1755.8 1092.6 2.01586e-10 1833.78 1147.93 2.27506e-10 1820.89 1134.23 2.36072e-10 1806.94 1121.02 2.43158e-10 1792.07 1108.12 2.47275e-10 1776.39 1095.4 2.49865e-10 1759.99 1082.75 2.51759e-10 1742.94 1070.08 2.5228e-10 1725.31 1057.33 2.51273e-10 1074.29 824.493 -1.02095e-11 1176.67 909.726 4.39584e-11 1273.57 991.65 8.70869e-11 1365.39 1069.95 1.21881e-10 1452.41 1144.42 1.49065e-10 1534.88 1214.93 1.70634e-10 1613 1281.39 1.87716e-10 1686.93 1343.77 2.01343e-10 1674.58 1330.77 2.10106e-10 1661.34 1317.64 2.15976e-10 1647.29 1304.28 2.20695e-10 1632.49 1290.66 2.23067e-10 1617.02 1276.74 2.24676e-10 1600.91 1262.48 2.25189e-10 1584.22 1247.87 2.24003e-10 951.039 951.039 1.21943e-10 1046.32 1046.32 1.39673e-10 1136.97 1136.97 1.52839e-10 1223.06 1223.06 1.62671e-10 1304.67 1304.67 1.69657e-10 1381.89 1381.89 1.74714e-10 1454.78 1454.78 1.78069e-10 1523.42 1523.42 1.79923e-10 1510.96 1510.96 1.88761e-10 1497.89 1497.89 1.95443e-10 1484.24 1484.24 2.00204e-10 1470.03 1470.03 2.03215e-10 1455.27 1455.27 2.04967e-10 1439.99 1439.99 2.05522e-10 1424.18 1424.18 2.05047e-10 824.493 1074.29 2.37055e-10 909.726 1176.67 2.19549e-10 991.65 1273.57 2.04782e-10 1069.95 1365.39 1.91256e-10 1144.42 1452.41 1.79779e-10 1214.93 1534.88 1.68953e-10 1281.39 1613 1.59626e-10 1343.77 1686.93 1.50558e-10 1330.77 1674.58 1.58488e-10 1317.64 1661.34 1.64861e-10 1304.28 1647.29 1.69399e-10 1290.66 1632.49 1.72633e-10 1276.74 1617.02 1.73872e-10 1262.48 1600.91 1.74647e-10 1247.87 1584.22 1.74979e-10 694.872 1194.46 3.5793e-10 766.707 1301.13 3.04733e-10 837.222 1401.84 2.60532e-10 905.574 1497.23 2.23977e-10 971.176 1587.79 1.92126e-10 1033.61 1673.88 1.65793e-10 1092.6 1755.8 1.4223e-10 1147.93 1833.78 1.22507e-10 1134.23 1820.89 1.30842e-10 1121.02 1806.94 1.36635e-10 1108.12 1792.07 1.41254e-10 1095.4 1776.39 1.45275e-10 1082.75 1759.99 1.46483e-10 1070.08 1742.94 1.47314e-10 1057.33 1725.31 1.49044e-10 562.885 1312.27 4.90971e-10 617.253 1420.25 3.97713e-10 673.241 1522.1 3.23469e-10 729.26 1618.67 2.60302e-10 784.191 1710.6 2.07611e-10 837.235 1798.36 1.6366e-10 887.815 1882.3 1.25212e-10 935.512 1962.71 9.41303e-11 921.141 1948.29 1.01778e-10 908.126 1932.78 1.06409e-10 896.162 1916.34 1.10585e-10 885.002 1899.11 1.13275e-10 874.447 1881.19 1.1618e-10 864.335 1862.69 1.19412e-10 854.533 1843.68 1.18843e-10 429.895 1429.07 6.4324e-10 461.57 1534.86 5.05357e-10 499.232 1634.66 3.93063e-10 540.161 1729.51 3.01308e-10 582.464 1820.15 2.26194e-10 624.792 1907.11 1.6294e-10 666.166 1990.79 1.0817e-10 705.865 2071.51 6.44e-11 691.175 2054.16 7.24497e-11 678.996 2035.79 7.85053e-11 668.857 2016.59 8.32378e-11 660.379 1996.7 8.45829e-11 653.253 1976.23 8.91461e-11 647.228 1955.28 9.40773e-11 642.097 1933.93 9.51922e-11 298.27 1547.24 8.27293e-10 300.189 1646.21 6.33154e-10 314.688 1739.82 4.80308e-10 337.235 1829.19 3.5412e-10 364.752 1915.1 2.51666e-10 395.073 1998.07 1.64862e-10 426.645 2078.52 9.29081e-11 458.324 2156.73 3.06097e-11 444.102 2134.5 3.58036e-11 433.916 2111.45 4.48456e-11 427.091 2087.74 4.95445e-11 423.086 2063.51 5.24807e-11 421.466 2038.86 5.4986e-11 421.876 2013.88 5.91456e-11 424.024 1988.64 5.99578e-11 172.122 1670.89 1.05762e-09 134.172 1756.28 7.94706e-10 119.083 1837.89 5.87845e-10 119.215 1916.66 4.22327e-10 129.559 1993.22 2.86744e-10 146.701 2067.97 1.7181e-10 168.235 2141.23 7.73042e-11 192.422 2213.21 -3.58899e-12 180.125 2183.48 -1.99319e-13 173.863 2153.25 5.01001e-12 172.712 2122.65 1.04043e-11 175.946 2091.75 1.25457e-11 182.985 2060.62 2.10046e-11 193.359 2029.33 1.95467e-11 206.684 1997.93 2.21689e-11 58.932 1807.5 1.36379e-09 -34.4569 1868.36 1.00132e-09 -88.1046 1929.22 7.22353e-10 -115.47 1990.08 5.0204e-10 -124.888 2050.94 3.23829e-10 -121.796 2111.8 1.778e-10 -109.893 2172.66 5.20117e-11 -91.7813 2233.52 -5.33191e-11 -99.677 2192.86 -4.81748e-11 -98.9386 2152.21 -4.37836e-11 -90.7825 2111.56 -4.25198e-11 -76.1468 2070.91 -3.85248e-11 -55.767 2030.26 -3.56142e-11 -30.2279 1989.61 -3.09228e-11 1.22598e-13 1948.95 -3.01222e-11 1437.57 46.8707 -1.13869e-09 1485.97 -27.4048 -8.21883e-10 1534.38 -70.0728 -5.78893e-10 1582.78 -91.8376 -3.86024e-10 1631.18 -99.3282 -2.28303e-10 1679.59 -96.8692 -9.93654e-11 1727.99 -87.402 8.17097e-12 1776.4 -72.997 1.01261e-10 1744.06 -79.2767 1.18225e-10 1711.73 -78.6895 1.33525e-10 1679.4 -72.2026 1.4879e-10 1647.07 -60.5623 1.58514e-10 1614.74 -44.3535 1.70469e-10 1582.41 -24.0413 1.78462e-10 1550.07 -9.75064e-14 1.8881e-10 1328.92 136.895 -8.83287e-10 1396.83 106.712 -6.46044e-10 1461.74 94.7113 -4.62578e-10 1524.39 94.8159 -3.12722e-10 1585.28 103.043 -1.91899e-10 1644.73 116.677 -8.89906e-11 1703 133.804 -7.27381e-12 1760.25 153.04 6.74719e-11 1736.6 143.26 7.86258e-11 1712.56 138.279 8.99266e-11 1688.22 137.364 1.01464e-10 1663.64 139.936 1.12435e-10 1638.89 145.535 1.198e-10 1614 153.785 1.22119e-10 1589.02 164.383 1.28846e-10 1230.58 237.225 -6.91345e-10 1309.29 238.752 -5.13674e-10 1383.75 250.282 -3.72289e-10 1454.83 268.216 -2.5576e-10 1523.14 290.1 -1.60764e-10 1589.14 314.216 -8.29889e-11 1653.12 339.326 -1.55488e-11 1715.33 364.522 4.18017e-11 1697.64 353.21 4.88024e-11 1679.31 345.11 5.47781e-11 1660.46 339.681 6.33238e-11 1641.18 336.496 6.9544e-11 1621.58 335.207 7.16509e-11 1601.71 335.534 7.5554e-11 1581.64 337.241 8.04507e-11 1136.6 341.911 -5.39754e-10 1220.73 367.103 -4.06171e-10 1300.11 397.057 -2.97297e-10 1375.54 429.61 -2.09293e-10 1447.63 463.255 -1.3411e-10 1516.79 496.92 -7.36803e-11 1583.35 529.826 -2.38452e-11 1647.55 561.4 1.96252e-11 1633.75 549.716 2.47729e-11 1619.14 540.03 2.9017e-11 1603.87 531.967 3.39287e-11 1588.05 525.223 3.68948e-11 1571.76 519.556 3.92693e-11 1555.1 514.764 4.14953e-11 1538.12 510.683 4.23343e-11 1043.7 447.683 -4.12754e-10 1129.58 490.923 -3.15083e-10 1210.58 535.453 -2.35166e-10 1287.39 580.007 -1.68594e-10 1360.5 623.696 -1.14651e-10 1430.3 665.883 -6.9728e-11 1497.06 706.111 -3.18931e-11 1561.01 744.047 -2.59594e-13 1549.54 732.617 2.27334e-12 1537.21 722.266 4.66243e-12 1524.13 712.75 6.8577e-12 1510.43 703.874 9.42446e-12 1496.18 695.48 8.83664e-12 1481.47 687.437 1.0084e-11 1466.34 679.641 1.17812e-11 949.999 552.657 -3.01872e-10 1034.84 609.79 -2.35006e-10 1114.93 665.873 -1.80194e-10 1190.8 720.236 -1.35372e-10 1262.83 772.412 -9.7685e-11 1331.3 822.072 -6.61193e-11 1396.45 868.986 -3.97806e-11 1458.47 912.994 -1.81961e-11 1448.22 902.094 -1.76067e-11 1437.12 891.584 -1.736e-11 1425.3 881.327 -1.54241e-11 1412.83 871.212 -1.46402e-11 1399.78 861.151 -1.41995e-11 1386.22 851.076 -1.4032e-11 1372.2 840.929 -1.37264e-11 854.42 655.749 -2.01837e-10 935.847 723.538 -1.62972e-10 1012.92 788.695 -1.30935e-10 1085.94 850.971 -1.04399e-10 1155.15 910.199 -8.28448e-11 1220.75 966.275 -6.42636e-11 1282.88 1019.14 -4.85294e-11 1341.68 1068.75 -3.4892e-11 1331.86 1058.41 -3.72468e-11 1321.33 1047.96 -3.84624e-11 1310.15 1037.34 -3.95015e-11 1298.38 1026.51 -3.98753e-11 1286.07 1015.44 -3.97241e-11 1273.26 1004.1 -4.03842e-11 1259.99 992.478 -4.04179e-11 756.396 756.396 -1.06929e-10 832.175 832.175 -9.51634e-11 904.27 904.27 -8.52727e-11 972.742 972.742 -7.66137e-11 1037.65 1037.65 -6.94125e-11 1099.07 1099.07 -6.28397e-11 1157.04 1157.04 -5.72466e-11 1211.63 1211.63 -5.20958e-11 1201.72 1201.72 -5.60101e-11 1191.33 1191.33 -5.88523e-11 1180.47 1180.47 -6.10749e-11 1169.17 1169.17 -6.25226e-11 1157.43 1157.43 -6.37728e-11 1145.27 1145.27 -6.4227e-11 1132.7 1132.7 -6.46312e-11 655.749 854.42 -4.20822e-11 723.538 935.847 -4.22876e-11 788.695 1012.92 -4.20707e-11 850.971 1085.94 -4.19443e-11 910.199 1155.15 -4.13923e-11 966.275 1220.75 -4.10457e-11 1019.14 1282.88 -4.01823e-11 1068.75 1341.68 -3.92474e-11 1058.41 1331.86 -4.57645e-11 1047.96 1321.33 -5.11516e-11 1037.34 1310.15 -5.52637e-11 1026.51 1298.38 -5.89262e-11 1015.44 1286.07 -6.1361e-11 1004.1 1273.26 -6.33801e-11 992.478 1259.99 -6.42036e-11 552.657 949.999 2.38351e-11 609.79 1034.84 1.13539e-11 665.873 1114.93 1.7053e-12 720.236 1190.8 -6.60131e-12 772.412 1262.83 -1.28091e-11 822.072 1331.3 -1.77259e-11 868.986 1396.45 -2.28461e-11 912.994 1458.47 -2.57979e-11 902.094 1448.22 -3.51362e-11 891.584 1437.12 -4.33033e-11 881.327 1425.3 -4.92568e-11 871.212 1412.83 -5.48587e-11 861.151 1399.78 -5.86037e-11 851.076 1386.22 -6.3637e-11 840.929 1372.2 -6.62441e-11 447.683 1043.7 9.36678e-11 490.923 1129.58 6.81974e-11 535.453 1210.58 4.77341e-11 580.007 1287.39 3.01673e-11 623.696 1360.5 1.62323e-11 665.883 1430.3 4.27924e-12 706.111 1497.06 -4.45985e-12 744.047 1561.01 -1.26547e-11 732.617 1549.54 -2.60339e-11 722.266 1537.21 -3.56904e-11 712.75 1524.13 -4.45953e-11 703.874 1510.43 -5.27785e-11 695.48 1496.18 -5.80005e-11 687.437 1481.47 -6.28757e-11 679.641 1466.34 -6.78885e-11 341.911 1136.6 1.71788e-10 367.103 1220.73 1.31774e-10 397.057 1300.11 9.86776e-11 429.61 1375.54 7.12999e-11 463.255 1447.63 4.79679e-11 496.92 1516.79 2.84801e-11 529.826 1583.35 1.3641e-11 561.4 1647.55 1.70597e-12 549.716 1633.75 -1.50364e-11 540.03 1619.14 -2.79175e-11 531.967 1603.87 -4.00377e-11 525.223 1588.05 -5.09607e-11 519.556 1571.76 -5.79544e-11 514.764 1555.1 -6.68289e-11 510.683 1538.12 -7.02265e-11 237.225 1230.58 2.6262e-10 238.752 1309.29 2.03417e-10 250.282 1383.75 1.57003e-10 268.216 1454.83 1.17728e-10 290.1 1523.14 8.69236e-11 314.216 1589.14 5.90148e-11 339.326 1653.12 3.56478e-11 364.522 1715.33 1.68337e-11 353.21 1697.64 -1.8619e-12 345.11 1679.31 -2.12006e-11 339.681 1660.46 -3.65289e-11 336.496 1641.18 -4.95751e-11 335.207 1621.58 -5.8089e-11 335.534 1601.71 -6.81286e-11 337.241 1581.64 -7.96643e-11 136.895 1328.92 3.75474e-10 106.712 1396.83 2.91732e-10 94.7113 1461.74 2.25981e-10 94.8159 1524.39 1.73882e-10 103.043 1585.28 1.31486e-10 116.677 1644.73 9.4968e-11 133.804 1703 6.68052e-11 153.04 1760.25 3.97904e-11 143.26 1736.6 1.39558e-11 138.279 1712.56 -8.63389e-12 137.364 1688.22 -2.81522e-11 139.936 1663.64 -4.62416e-11 145.535 1638.89 -5.78483e-11 153.785 1614 -7.21677e-11 164.383 1589.02 -8.31347e-11 46.8707 1437.57 5.2205e-10 -27.4048 1485.97 4.04339e-10 -70.0728 1534.38 3.13321e-10 -91.8376 1582.78 2.43631e-10 -99.3282 1631.18 1.83169e-10 -96.8692 1679.59 1.35404e-10 -87.402 1727.99 9.76715e-11 -72.997 1776.4 6.18798e-11 -79.2767 1744.06 3.05338e-11 -78.6895 1711.73 3.93662e-12 -72.2026 1679.4 -2.25981e-11 -60.5623 1647.07 -4.08485e-11 -44.3535 1614.74 -6.133e-11 -24.0413 1582.41 -7.68258e-11 2.92519e-13 1550.07 -9.35407e-11 1054.98 34.3969 -7.62938e-10 1090.51 -20.1115 -6.24824e-10 1126.03 -51.4241 -5.18548e-10 1161.55 -67.3965 -4.35302e-10 1197.07 -72.8936 -3.66885e-10 1232.59 -71.089 -3.12383e-10 1268.12 -64.1414 -2.63973e-10 1303.64 -53.5701 -2.24487e-10 1279.91 -58.1785 -2.17687e-10 1256.18 -57.7476 -2.09039e-10 1232.46 -52.9871 -2.03408e-10 1208.73 -44.4446 -1.99713e-10 1185 -32.5496 -1.93891e-10 1161.27 -17.6431 -1.9194e-10 1137.55 -7.15566e-14 -1.87114e-10 975.251 100.463 -6.04184e-10 1025.09 78.3124 -5.11382e-10 1072.72 69.5054 -4.38046e-10 1118.7 69.5822 -3.79203e-10 1163.38 75.6198 -3.31348e-10 1207.02 85.6251 -2.92298e-10 1249.78 98.1939 -2.55583e-10 1291.79 112.311 -2.24871e-10 1274.43 105.134 -2.23366e-10 1256.79 101.479 -2.21669e-10 1238.93 100.807 -2.21123e-10 1220.89 102.695 -2.15789e-10 1202.73 106.803 -2.14074e-10 1184.46 112.858 -2.12047e-10 1166.13 120.635 -2.10252e-10 903.081 174.091 -4.84798e-10 960.847 175.212 -4.24847e-10 1015.48 183.674 -3.76099e-10 1067.65 196.834 -3.35783e-10 1117.78 212.895 -3.01662e-10 1166.21 230.593 -2.72756e-10 1213.17 249.02 -2.47948e-10 1258.82 267.51 -2.25352e-10 1245.84 259.209 -2.28172e-10 1232.39 253.264 -2.30882e-10 1218.55 249.28 -2.30517e-10 1204.41 246.943 -2.30719e-10 1190.02 245.997 -2.32284e-10 1175.44 246.237 -2.31564e-10 1160.71 247.49 -2.29166e-10 834.109 250.917 -3.91918e-10 895.855 269.405 -3.57152e-10 954.104 291.387 -3.27258e-10 1009.46 315.276 -3.02391e-10 1062.37 339.967 -2.80911e-10 1113.12 364.673 -2.61665e-10 1161.97 388.821 -2.46658e-10 1209.08 411.993 -2.31813e-10 1198.95 403.418 -2.37138e-10 1188.23 396.31 -2.40773e-10 1177.03 390.392 -2.44557e-10 1165.41 385.444 -2.46472e-10 1153.47 381.285 -2.48397e-10 1141.24 377.768 -2.48705e-10 1128.78 374.773 -2.48025e-10 765.933 328.539 -3.1487e-10 828.96 360.272 -3.00572e-10 888.404 392.951 -2.87809e-10 944.771 425.648 -2.75896e-10 998.427 457.709 -2.64686e-10 1049.65 488.669 -2.5569e-10 1098.64 518.191 -2.45638e-10 1145.57 546.031 -2.3689e-10 1137.16 537.643 -2.45767e-10 1128.1 530.047 -2.52111e-10 1118.51 523.064 -2.56838e-10 1108.45 516.55 -2.60203e-10 1098 510.389 -2.61772e-10 1087.2 504.487 -2.62797e-10 1076.1 498.766 -2.63305e-10 697.172 405.576 -2.48776e-10 759.431 447.505 -2.53185e-10 818.212 488.662 -2.54716e-10 873.89 528.557 -2.55174e-10 926.747 566.847 -2.54094e-10 976.997 603.291 -2.51638e-10 1024.81 637.719 -2.48711e-10 1070.32 670.016 -2.45653e-10 1062.8 662.017 -2.58103e-10 1054.66 654.304 -2.66532e-10 1045.98 646.776 -2.74315e-10 1036.83 639.353 -2.78683e-10 1027.25 631.97 -2.81199e-10 1017.3 624.576 -2.83023e-10 1007.02 617.13 -2.83127e-10 627.03 481.232 -1.8975e-10 686.787 530.98 -2.11125e-10 743.347 578.797 -2.26867e-10 796.935 624.499 -2.38429e-10 847.728 667.965 -2.46724e-10 895.866 709.117 -2.51858e-10 941.462 747.909 -2.55482e-10 984.614 784.318 -2.57108e-10 977.406 776.734 -2.72516e-10 969.676 769.065 -2.84603e-10 961.473 761.271 -2.93464e-10 952.838 753.322 -2.9969e-10 943.804 745.196 -3.03634e-10 934.404 736.874 -3.05814e-10 924.662 728.346 -3.06333e-10 555.093 555.093 -1.34713e-10 610.705 610.705 -1.73096e-10 663.613 663.613 -2.02749e-10 713.863 713.863 -2.25573e-10 761.499 761.499 -2.42809e-10 806.567 806.567 -2.55768e-10 849.112 849.112 -2.65379e-10 889.178 889.178 -2.7196e-10 881.901 881.901 -2.91197e-10 874.275 874.275 -3.06114e-10 866.31 866.31 -3.17259e-10 858.015 858.015 -3.25275e-10 849.401 849.401 -3.30572e-10 840.477 840.477 -3.33653e-10 831.254 831.254 -3.34997e-10 481.232 627.03 -9.3376e-11 530.98 686.787 -1.33141e-10 578.797 743.347 -1.64101e-10 624.499 796.935 -1.88128e-10 667.965 847.728 -2.0675e-10 709.117 895.866 -2.21472e-10 747.909 941.462 -2.32208e-10 784.318 984.614 -2.40226e-10 776.734 977.406 -2.58364e-10 769.065 969.676 -2.72749e-10 761.271 961.473 -2.83865e-10 753.322 952.838 -2.92254e-10 745.196 943.804 -2.97659e-10 736.874 934.404 -3.01132e-10 728.346 924.662 -3.02997e-10 405.576 697.172 -5.20188e-11 447.505 759.431 -9.34192e-11 488.662 818.212 -1.26612e-10 528.557 873.89 -1.52578e-10 566.847 926.747 -1.73325e-10 603.291 976.997 -1.89744e-10 637.719 1024.81 -2.02103e-10 670.016 1070.32 -2.11101e-10 662.017 1062.8 -2.29301e-10 654.304 1054.66 -2.43979e-10 646.776 1045.98 -2.5443e-10 639.353 1036.83 -2.62749e-10 631.97 1027.25 -2.68703e-10 624.576 1017.3 -2.73853e-10 617.13 1007.02 -2.75697e-10 328.539 765.933 -8.9031e-12 360.272 828.96 -5.37128e-11 392.951 888.404 -8.84264e-11 425.648 944.771 -1.17376e-10 457.709 998.427 -1.40027e-10 488.669 1049.65 -1.57175e-10 518.191 1098.64 -1.70725e-10 546.031 1145.57 -1.83486e-10 537.643 1137.16 -2.01282e-10 530.047 1128.1 -2.16166e-10 523.064 1118.51 -2.27014e-10 516.55 1108.45 -2.35947e-10 510.389 1098 -2.43405e-10 504.487 1087.2 -2.48325e-10 498.766 1076.1 -2.51846e-10 250.917 834.109 3.71369e-11 269.405 895.855 -1.04311e-11 291.387 954.104 -4.96021e-11 315.276 1009.46 -8.01213e-11 339.967 1062.37 -1.04774e-10 364.673 1113.12 -1.26271e-10 388.821 1161.97 -1.41403e-10 411.993 1209.08 -1.54662e-10 403.418 1198.95 -1.73242e-10 396.31 1188.23 -1.8752e-10 390.392 1177.03 -1.98783e-10 385.444 1165.41 -2.09355e-10 381.285 1153.47 -2.16609e-10 377.768 1141.24 -2.22575e-10 374.773 1128.78 -2.27439e-10 174.091 903.081 9.13474e-11 175.212 960.847 3.68598e-11 183.674 1015.48 -5.58191e-12 196.834 1067.65 -3.97215e-11 212.895 1117.78 -6.79871e-11 230.593 1166.21 -9.08033e-11 249.02 1213.17 -1.1095e-10 267.51 1258.82 -1.25948e-10 259.209 1245.84 -1.44493e-10 253.264 1232.39 -1.57523e-10 249.28 1218.55 -1.70895e-10 246.943 1204.41 -1.80584e-10 245.997 1190.02 -1.90881e-10 246.237 1175.44 -1.99673e-10 247.49 1160.71 -2.05752e-10 100.463 975.251 1.55524e-10 78.3124 1025.09 9.42292e-11 69.5054 1072.72 4.50129e-11 69.5822 1118.7 6.89671e-12 75.6198 1163.38 -2.54793e-11 85.6251 1207.02 -4.95972e-11 98.1939 1249.78 -7.2772e-11 112.311 1291.79 -9.19412e-11 105.134 1274.43 -1.1195e-10 101.479 1256.79 -1.25912e-10 100.807 1238.93 -1.37143e-10 102.695 1220.89 -1.51025e-10 106.803 1202.73 -1.59846e-10 112.858 1184.46 -1.7124e-10 120.635 1166.13 -1.77102e-10 34.3969 1054.98 2.3914e-10 -20.1115 1090.51 1.64284e-10 -51.4241 1126.03 1.07425e-10 -67.3965 1161.55 6.09971e-11 -72.8936 1197.07 2.49864e-11 -71.089 1232.59 -4.07141e-12 -64.1414 1268.12 -3.09862e-11 -53.5701 1303.64 -5.27189e-11 -58.1785 1279.91 -6.91776e-11 -57.7476 1256.18 -8.60487e-11 -52.9871 1232.46 -9.93438e-11 -44.4446 1208.73 -1.09292e-10 -32.5496 1185 -1.21465e-10 -17.6431 1161.27 -1.28547e-10 2.86227e-13 1137.55 -1.38005e-10 654.474 21.3386 -5.14603e-10 676.511 -12.4764 -5.16033e-10 698.548 -31.9017 -5.16411e-10 720.585 -41.8104 -5.16377e-10 742.621 -45.2206 -5.17165e-10 764.658 -44.1011 -5.18201e-10 786.695 -39.7911 -5.18224e-10 808.731 -33.233 -5.18449e-10 794.012 -36.0919 -5.19124e-10 779.292 -35.8246 -5.20554e-10 764.573 -32.8713 -5.20693e-10 749.853 -27.5719 -5.23242e-10 735.133 -20.1926 -5.23129e-10 720.414 -10.9452 -5.25048e-10 705.694 -4.43912e-14 -5.25233e-10 605.011 62.3235 -4.24799e-10 635.929 48.5823 -4.43285e-10 665.479 43.1187 -4.58477e-10 694.002 43.1664 -4.68941e-10 721.721 46.9119 -4.77322e-10 748.79 53.1188 -4.82117e-10 775.317 60.9161 -4.86468e-10 801.38 69.6737 -4.90449e-10 790.614 65.2212 -4.9645e-10 779.669 62.9537 -5.03587e-10 768.586 62.5371 -5.07777e-10 757.398 63.7082 -5.11708e-10 746.129 66.2568 -5.14604e-10 734.799 70.013 -5.16371e-10 723.427 74.8378 -5.165e-10 560.24 108 -3.57729e-10 596.076 108.695 -3.91255e-10 629.971 113.945 -4.14525e-10 662.331 122.109 -4.33297e-10 693.435 132.072 -4.46722e-10 723.479 143.052 -4.57567e-10 752.607 154.483 -4.64978e-10 780.928 165.954 -4.70115e-10 772.878 160.804 -4.80936e-10 764.531 157.116 -4.91956e-10 755.947 154.645 -4.98996e-10 747.174 153.195 -5.04038e-10 738.249 152.608 -5.0813e-10 729.204 152.757 -5.10413e-10 720.064 153.534 -5.11157e-10 517.452 155.66 -3.07036e-10 555.757 167.129 -3.50491e-10 591.893 180.766 -3.83016e-10 626.237 195.586 -4.07612e-10 659.055 210.904 -4.2644e-10 690.542 226.23 -4.39811e-10 720.844 241.211 -4.50296e-10 750.072 255.586 -4.57575e-10 743.788 250.267 -4.74596e-10 737.138 245.857 -4.86441e-10 730.185 242.186 -4.96224e-10 722.982 239.116 -5.03239e-10 715.569 236.536 -5.07581e-10 707.984 234.354 -5.10443e-10 700.253 232.496 -5.10905e-10 475.158 203.814 -2.66887e-10 514.258 223.5 -3.18942e-10 551.135 243.773 -3.58543e-10 586.103 264.057 -3.89296e-10 619.389 283.947 -4.123e-10 651.165 303.153 -4.30008e-10 681.559 321.468 -4.42086e-10 710.674 338.739 -4.50957e-10 705.453 333.535 -4.71432e-10 699.836 328.822 -4.86971e-10 693.884 324.49 -4.98319e-10 687.645 320.449 -5.06681e-10 681.16 316.628 -5.11858e-10 674.46 312.966 -5.15333e-10 667.575 309.417 -5.15269e-10 432.501 251.605 -2.33984e-10 471.125 277.616 -2.94698e-10 507.59 303.149 -3.41524e-10 542.131 327.898 -3.77757e-10 574.921 351.652 -4.05091e-10 606.095 374.26 -4.2607e-10 635.757 395.619 -4.41335e-10 663.991 415.654 -4.51918e-10 659.322 410.692 -4.76193e-10 654.272 405.907 -4.94913e-10 648.889 401.237 -5.08579e-10 643.211 396.632 -5.18844e-10 637.272 392.052 -5.24796e-10 631.099 387.465 -5.28029e-10 624.717 382.846 -5.28897e-10 388.988 298.54 -2.05718e-10 426.059 329.401 -2.75184e-10 461.146 359.065 -3.29383e-10 494.391 387.417 -3.71027e-10 525.901 414.382 -4.0311e-10 555.764 439.911 -4.27581e-10 584.05 463.977 -4.4555e-10 610.82 486.563 -4.58515e-10 606.348 481.859 -4.87539e-10 601.553 477.101 -5.09278e-10 596.464 472.266 -5.25628e-10 591.107 467.335 -5.37174e-10 585.503 462.293 -5.44852e-10 579.671 457.131 -5.48826e-10 573.628 451.841 -5.49925e-10 344.361 344.361 -1.80948e-10 378.86 378.86 -2.59927e-10 411.682 411.682 -3.2158e-10 442.856 442.856 -3.6948e-10 472.408 472.408 -4.06604e-10 500.366 500.366 -4.35065e-10 526.759 526.759 -4.56447e-10 551.615 551.615 -4.72015e-10 547.101 547.101 -5.05743e-10 542.37 542.37 -5.31914e-10 537.428 537.428 -5.51479e-10 532.283 532.283 -5.65738e-10 526.939 526.939 -5.75262e-10 521.403 521.403 -5.80812e-10 515.681 515.681 -5.83121e-10 298.54 388.988 -1.53538e-10 329.401 426.059 -2.26001e-10 359.065 461.146 -2.82478e-10 387.417 494.391 -3.26564e-10 414.382 525.901 -3.61034e-10 439.911 555.764 -3.87217e-10 463.977 584.05 -4.07037e-10 486.563 610.82 -4.21467e-10 481.859 606.348 -4.51689e-10 477.101 601.553 -4.74938e-10 472.266 596.464 -4.92512e-10 467.335 591.107 -5.05125e-10 462.293 585.503 -5.13709e-10 457.131 579.671 -5.18992e-10 451.841 573.628 -5.21095e-10 251.605 432.501 -1.27554e-10 277.616 471.125 -1.9409e-10 303.149 507.59 -2.46054e-10 327.898 542.131 -2.87003e-10 351.652 574.921 -3.18975e-10 374.26 606.095 -3.43881e-10 395.619 635.757 -3.63098e-10 415.654 663.991 -3.76964e-10 410.692 659.322 -4.03744e-10 405.907 654.272 -4.24933e-10 401.237 648.889 -4.41352e-10 396.632 643.211 -4.53216e-10 392.052 637.272 -4.61434e-10 387.465 631.099 -4.66778e-10 382.846 624.717 -4.69695