<?xml version="1.0"?> 
<VTKFile type="StructuredGrid" version="0.1"> 
<StructuredGrid WholeExtent="0 29 0 29 0 29"> 
<Piece Extent="0 29 0 29 0 29"> 
<PointData>
<DataArray type="Float32" Name="hfield" format="ascii" NumberOfComponents="3"> 
2160.77 -70.4502 1.68257e-10 2195.9 -9.24091 2.32519e-10 2231.02 38.2501 2.8821e-10 2266.14 74.668 3.37856e-10 2301.27 102.052 3.82438e-10 2336.39 122.001 4.20313e-10 2371.51 135.785 4.53204e-10 2406.64 144.426 4.83803e-10 2441.76 148.754 5.14637e-10 2476.88 149.455 5.4449e-10 2512 147.094 5.64442e-10 2547.13 142.147 5.86218e-10 2582.25 135.013 6.06183e-10 2617.37 126.032 6.24166e-10 2652.5 115.494 6.37442e-10 2658.33 113.037 6.61163e-10 2634.87 117.658 6.78734e-10 2611.41 119.769 6.94956e-10 2587.95 119.56 7.08417e-10 2564.48 117.193 7.2233e-10 2541.02 112.814 7.39432e-10 2517.56 106.551 7.52193e-10 2494.1 98.5176 7.64042e-10 2470.64 88.8146 7.75249e-10 2447.18 77.5325 7.85812e-10 2423.72 64.7521 7.9314e-10 2400.26 50.5462 8.05772e-10 2376.8 34.9803 8.0945e-10 2353.34 18.1137 8.18318e-10 2329.88 -5.86238e-13 8.31251e-10 2079.18 -133.017 1.60143e-10 2122.55 -90.4046 2.20318e-10 2165.18 -58.2448 2.72803e-10 2207.19 -34.5879 3.18925e-10 2248.66 -17.9025 3.60518e-10 2289.68 -6.96915 3.95849e-10 2330.3 -0.805118 4.30126e-10 2370.57 1.39049 4.58407e-10 2410.52 0.276779 4.86166e-10 2450.19 -3.59894 5.13215e-10 2489.62 -9.77847 5.33501e-10 2528.81 -17.8754 5.53162e-10 2567.79 -27.5615 5.7563e-10 2606.58 -38.5565 5.9036e-10 2645.2 -50.6193 6.06127e-10 2654.41 -53.1002 6.21909e-10 2634.26 -47.0378 6.35971e-10 2614.05 -43.0986 6.53244e-10 2593.76 -41.1185 6.66729e-10 2573.41 -40.9531 6.79958e-10 2553.01 -42.4744 7.00157e-10 2532.57 -45.5687 7.03735e-10 2512.08 -50.1346 7.11762e-10 2491.56 -56.0816 7.27401e-10 2471.01 -63.3282 7.36503e-10 2450.44 -71.8012 7.3947e-10 2429.84 -81.4345 7.52436e-10 2409.23 -92.1683 7.62728e-10 2388.6 -103.948 7.64824e-10 2367.96 -116.725 7.73657e-10 2002.77 -200.771 1.54194e-10 2052.33 -173.69 2.10187e-10 2100.68 -154.579 2.59559e-10 2148.01 -141.975 3.03234e-10 2194.44 -134.711 3.44336e-10 2240.08 -131.845 3.76648e-10 2285.05 -132.611 4.07514e-10 2329.39 -136.376 4.37098e-10 2373.19 -142.615 4.60898e-10 2416.49 -150.889 4.86069e-10 2459.33 -160.826 5.05984e-10 2501.76 -172.111 5.24685e-10 2543.8 -184.477 5.38241e-10 2585.49 -197.691 5.5824e-10 2626.85 -211.555 5.74916e-10 2638.8 -214.417 5.88995e-10 2621.46 -207.336 6.00008e-10 2603.98 -202.037 6.15445e-10 2586.37 -198.377 6.30176e-10 2568.65 -196.231 6.37761e-10 2550.83 -195.486 6.52004e-10 2532.93 -196.043 6.61654e-10 2514.95 -197.812 6.70747e-10 2496.91 -200.712 6.79462e-10 2478.8 -204.671 6.86799e-10 2460.65 -209.624 6.93978e-10 2442.45 -215.511 7.01126e-10 2424.22 -222.279 7.07197e-10 2405.95 -229.878 7.17033e-10 2387.66 -238.265 7.17681e-10 1929.95 -272.112 1.48081e-10 1984.14 -258.18 2.00857e-10 2036.84 -250.293 2.48204e-10 2088.23 -247.338 2.89402e-10 2138.48 -248.417 3.26416e-10 2187.73 -252.798 3.59029e-10 2236.07 -259.875 3.87474e-10 2283.6 -269.148 4.13511e-10 2330.4 -280.198 4.40189e-10 2376.52 -292.671 4.59851e-10 2422.03 -306.266 4.80399e-10 2466.96 -320.727 4.98958e-10 2511.36 -335.836 5.1318e-10 2555.27 -351.401 5.26053e-10 2598.71 -367.261 5.42806e-10 2612.84 -370.774 5.56395e-10 2597.84 -363.007 5.69639e-10 2582.65 -356.721 5.82933e-10 2567.28 -351.794 5.93668e-10 2551.76 -348.116 6.03231e-10 2536.09 -345.59 6.12279e-10 2520.31 -344.129 6.24295e-10 2504.42 -343.654 6.35452e-10 2488.44 -344.096 6.36547e-10 2472.36 -345.389 6.43142e-10 2456.22 -347.478 6.49364e-10 2440.01 -350.309 6.60061e-10 2423.74 -353.835 6.62167e-10 2407.42 -358.012 6.67002e-10 2391.05 -362.801 6.70779e-10 1859.56 -345.882 1.44438e-10 1917.18 -343.202 1.94117e-10 1973.12 -345.051 2.38779e-10 2027.58 -350.575 2.78639e-10 2080.73 -359.076 3.13648e-10 2132.71 -369.98 3.44427e-10 2183.63 -382.811 3.71795e-10 2233.58 -397.171 3.96087e-10 2282.66 -412.723 4.18553e-10 2330.92 -429.184 4.39098e-10 2378.43 -446.311 4.5754e-10 2425.23 -463.897 4.74975e-10 2471.38 -481.763 4.87944e-10 2516.91 -499.754 5.0238e-10 2561.85 -517.738 5.10459e-10 2577.67 -522.101 5.29248e-10 2564.6 -513.908 5.44156e-10 2551.29 -506.932 5.55321e-10 2537.77 -501.067 5.61607e-10 2524.06 -496.22 5.70076e-10 2510.18 -492.308 5.78503e-10 2496.15 -489.254 5.89174e-10 2481.98 -486.992 5.94645e-10 2467.68 -485.46 6.01319e-10 2453.28 -484.604 6.08333e-10 2438.78 -484.372 6.11914e-10 2424.19 -484.72 6.16412e-10 2409.52 -485.606 6.20201e-10 2394.78 -486.992 6.23757e-10 2379.98 -488.844 6.26767e-10 1790.75 -421.227 1.4099e-10 1850.83 -428.256 1.88274e-10 1909.13 -438.607 2.3041e-10 1965.84 -451.617 2.6762e-10 2021.12 -466.743 3.00718e-10 2075.1 -483.534 3.30155e-10 2127.91 -501.614 3.55729e-10 2179.64 -520.666 3.79817e-10 2230.37 -540.422 4.00844e-10 2280.17 -560.655 4.21255e-10 2329.11 -581.17 4.36884e-10 2377.23 -601.799 4.54959e-10 2424.59 -622.4 4.65594e-10 2471.22 -642.846 4.79775e-10 2517.15 -663.03 4.91715e-10 2534.23 -668.385 5.04717e-10 2522.73 -659.966 5.12623e-10 2510.96 -652.531 5.23571e-10 2498.95 -645.991 5.34991e-10 2486.72 -640.267 5.43513e-10 2474.29 -635.287 5.51348e-10 2461.68 -630.988 5.5858e-10 2448.91 -627.311 5.65791e-10 2435.99 -624.205 5.69836e-10 2422.94 -621.622 5.76146e-10 2409.76 -619.519 5.78744e-10 2396.48 -617.858 5.86402e-10 2383.11 -616.603 5.8298e-10 2369.64 -615.72 5.88035e-10 2356.09 -615.182 5.9033e-10 1722.86 -497.502 1.37611e-10 1784.64 -512.968 1.83496e-10 1844.56 -530.779 2.22919e-10 1902.82 -550.424 2.57663e-10 1959.57 -571.478 2.892e-10 2014.95 -593.588 3.17309e-10 2069.07 -616.456 3.41924e-10 2122.01 -639.833 3.64187e-10 2173.86 -663.505 3.8377e-10 2224.69 -687.292 4.03374e-10 2274.55 -711.039 4.19153e-10 2323.51 -734.611 4.33185e-10 2371.61 -757.894 4.4711e-10 2418.88 -780.789 4.58387e-10 2465.37 -803.21 4.69048e-10 2483.32 -809.653 4.78571e-10 2473.08 -801.159 4.90763e-10 2462.55 -793.444 5.00216e-10 2451.75 -786.435 5.09695e-10 2440.7 -780.065 5.1612e-10 2429.44 -774.275 5.22616e-10 2417.98 -769.009 5.32528e-10 2406.33 -764.221 5.34605e-10 2394.51 -759.866 5.42312e-10 2382.54 -755.904 5.45184e-10 2370.43 -752.299 5.49881e-10 2358.2 -749.019 5.50081e-10 2345.84 -746.033 5.53952e-10 2333.38 -743.314 5.5716e-10 2320.82 -740.836 5.58231e-10 1655.42 -574.216 1.35532e-10 1718.22 -597.049 1.77566e-10 1779.15 -621.434 2.15654e-10 1838.38 -646.975 2.5047e-10 1896.06 -673.343 2.806e-10 1952.3 -700.261 3.07429e-10 2007.21 -727.497 3.30335e-10 2060.87 -754.855 3.51952e-10 2113.37 -782.167 3.70162e-10 2164.78 -809.292 3.86864e-10 2215.14 -836.106 4.03451e-10 2264.51 -862.505 4.17492e-10 2312.94 -888.399 4.30823e-10 2360.45 -913.709 4.39873e-10 2407.1 -938.369 4.49089e-10 2425.61 -945.96 4.60401e-10 2416.36 -937.501 4.68899e-10 2406.8 -929.643 4.7942e-10 2396.96 -922.325 4.88704e-10 2386.85 -915.492 4.96045e-10 2376.51 -909.095 4.99035e-10 2365.96 -903.089 5.0617e-10 2355.2 -897.434 5.09591e-10 2344.26 -892.094 5.16738e-10 2333.14 -887.036 5.1887e-10 2321.87 -882.23 5.21631e-10 2310.46 -877.65 5.24133e-10 2298.91 -873.271 5.27232e-10 2287.24 -869.069 5.28406e-10 2275.45 -865.025 5.29435e-10 1588.04 -650.995 1.33957e-10 1651.31 -680.284 1.74601e-10 1712.71 -710.475 2.11195e-10 1772.41 -741.264 2.43976e-10 1830.51 -772.398 2.72859e-10 1887.15 -803.663 2.99117e-10 1942.41 -834.88 3.21008e-10 1996.38 -865.897 3.42503e-10 2049.12 -896.585 3.61013e-10 2100.7 -926.833 3.77093e-10 2151.17 -956.548 3.92403e-10 2200.59 -985.647 4.05353e-10 2248.98 -1014.06 4.1724e-10 2296.4 -1041.73 4.25611e-10 2342.87 -1068.61 4.35128e-10 2361.65 -1077.38 4.46716e-10 2353.15 -1069.03 4.54408e-10 2344.34 -1061.13 4.64419e-10 2335.24 -1053.63 4.73136e-10 2325.87 -1046.47 4.77861e-10 2316.25 -1039.63 4.82683e-10 2306.4 -1033.06 4.89593e-10 2296.34 -1026.74 4.93442e-10 2286.08 -1020.63 4.97167e-10 2275.64 -1014.7 5.01616e-10 2265.02 -1008.94 5.02622e-10 2254.25 -1003.32 5.02895e-10 2243.33 -997.824 5.06714e-10 2232.27 -992.43 5.06229e-10 2221.08 -987.123 5.05299e-10 1520.43 -727.547 1.33431e-10 1583.68 -762.507 1.73236e-10 1645.09 -797.833 2.08223e-10 1704.79 -833.296 2.39946e-10 1762.9 -868.704 2.68216e-10 1819.52 -903.897 2.91361e-10 1874.74 -938.737 3.14171e-10 1928.62 -973.111 3.34624e-10 1981.24 -1006.92 3.52056e-10 2032.65 -1040.08 3.66936e-10 2082.89 -1072.53 3.81932e-10 2132.03 -1104.19 3.92886e-10 2180.08 -1135.03 4.0327e-10 2227.09 -1164.99 4.11423e-10 2273.1 -1194.04 4.2169e-10 2291.89 -1203.99 4.30178e-10 2283.96 -1195.81 4.40207e-10 2275.71 -1187.94 4.47997e-10 2267.16 -1180.34 4.54657e-10 2258.35 -1172.97 4.63272e-10 2249.28 -1165.8 4.67022e-10 2239.97 -1158.82 4.7245e-10 2230.45 -1151.98 4.76844e-10 2220.72 -1145.26 4.78396e-10 2210.79 -1138.66 4.81852e-10 2200.68 -1132.14 4.83634e-10 2190.41 -1125.69 4.83599e-10 2179.97 -1119.3 4.85715e-10 2169.39 -1112.95 4.86051e-10 2158.66 -1106.63 4.85906e-10 1452.37 -803.649 1.3192e-10 1515.15 -843.594 1.69715e-10 1576.13 -883.462 2.04312e-10 1635.44 -923.085 2.33346e-10 1693.16 -962.323 2.60547e-10 1749.4 -1001.06 2.84367e-10 1804.22 -1039.19 3.05004e-10 1857.68 -1076.63 3.23304e-10 1909.85 -1113.32 3.4089e-10 1960.77 -1149.19 3.5595e-10 2010.49 -1184.19 3.68742e-10 2059.05 -1218.28 3.81106e-10 2106.49 -1251.43 3.89382e-10 2152.83 -1283.59 3.98841e-10 2198.1 -1314.75 4.06167e-10 2216.7 -1325.88 4.15755e-10 2209.17 -1317.89 4.24955e-10 2201.32 -1310.1 4.30832e-10 2193.18 -1302.46 4.37895e-10 2184.78 -1294.96 4.45005e-10 2176.12 -1287.57 4.50875e-10 2167.23 -1280.27 4.55352e-10 2158.11 -1273.04 4.58072e-10 2148.78 -1265.86 4.60909e-10 2139.25 -1258.72 4.61701e-10 2129.54 -1251.61 4.64681e-10 2119.65 -1244.5 4.64399e-10 2109.6 -1237.4 4.66401e-10 2099.38 -1230.29 4.66391e-10 2089.01 -1223.15 4.66017e-10 1383.69 -879.13 1.31851e-10 1445.58 -923.454 1.68856e-10 1505.75 -967.334 2.01657e-10 1564.28 -1010.65 2.29975e-10 1621.26 -1053.31 2.56185e-10 1676.77 -1095.23 2.79332e-10 1730.87 -1136.34 2.99182e-10 1783.6 -1176.58 3.16757e-10 1835.03 -1215.91 3.33249e-10 1885.18 -1254.29 3.47806e-10 1934.11 -1291.68 3.60872e-10 1981.84 -1328.05 3.71719e-10 2028.41 -1363.38 3.81142e-10 2073.84 -1397.65 3.90235e-10 2118.16 -1430.85 3.95222e-10 2136.39 -1443.12 4.04924e-10 2129.1 -1435.34 4.14291e-10 2121.53 -1427.65 4.22009e-10 2113.67 -1420.02 4.27118e-10 2105.56 -1412.44 4.33221e-10 2097.2 -1404.9 4.37923e-10 2088.61 -1397.37 4.42031e-10 2079.8 -1389.84 4.4596e-10 2070.79 -1382.3 4.47808e-10 2061.57 -1374.74 4.51191e-10 2052.17 -1367.16 4.51124e-10 2042.59 -1359.53 4.52909e-10 2032.83 -1351.86 4.53008e-10 2022.92 -1344.14 4.522e-10 2012.84 -1336.36 4.51178e-10 1314.26 -953.864 1.31885e-10 1374.87 -1002.02 1.67717e-10 1433.84 -1049.44 1.99201e-10 1491.25 -1096.03 2.27528e-10 1547.15 -1141.73 2.52081e-10 1601.62 -1186.5 2.74662e-10 1654.69 -1230.29 2.94231e-10 1706.41 -1273.07 3.11415e-10 1756.81 -1314.82 3.26447e-10 1805.95 -1355.5 3.4077e-10 1853.83 -1395.09 3.52054e-10 1900.5 -1433.59 3.63424e-10 1945.98 -1470.99 3.72575e-10 1990.3 -1507.26 3.79955e-10 2033.47 -1542.42 3.87244e-10 2051.17 -1555.78 3.94812e-10 2044.02 -1548.2 4.03646e-10 2036.6 -1540.62 4.11661e-10 2028.93 -1533.03 4.17913e-10 2021.02 -1525.41 4.22747e-10 2012.87 -1517.75 4.27718e-10 2004.51 -1510.05 4.31894e-10 1995.94 -1502.29 4.34533e-10 1987.16 -1494.47 4.3745e-10 1978.19 -1486.59 4.39028e-10 1969.04 -1478.63 4.40024e-10 1959.72 -1470.59 4.40774e-10 1950.22 -1462.47 4.40734e-10 1940.56 -1454.26 4.41899e-10 1930.74 -1445.96 4.39852e-10 1244 -1027.76 1.32318e-10 1302.93 -1079.27 1.66571e-10 1360.34 -1129.77 1.97236e-10 1416.28 -1179.24 2.24669e-10 1470.78 -1227.63 2.48805e-10 1523.9 -1274.94 2.70267e-10 1575.66 -1321.13 2.89462e-10 1626.09 -1366.2 3.06054e-10 1675.23 -1410.13 3.20716e-10 1723.1 -1452.91 3.34052e-10 1769.73 -1494.54 3.45656e-10 1815.13 -1535.02 3.55979e-10 1859.32 -1574.34 3.64886e-10 1902.34 -1612.5 3.72684e-10 1944.18 -1649.51 3.79298e-10 1961.21 -1663.9 3.87618e-10 1954.1 -1656.51 3.95688e-10 1946.76 -1649.04 4.03156e-10 1939.19 -1641.48 4.09525e-10 1931.41 -1633.84 4.14723e-10 1923.41 -1626.1 4.19669e-10 1915.22 -1618.26 4.23368e-10 1906.83 -1610.33 4.26458e-10 1898.25 -1602.28 4.29208e-10 1889.49 -1594.13 4.31072e-10 1880.56 -1585.87 4.32215e-10 1871.46 -1577.5 4.3247e-10 1862.19 -1569.02 4.32825e-10 1852.76 -1560.42 4.32179e-10 1843.18 -1551.71 4.31837e-10 1172.84 -1100.76 1.33171e-10 1229.71 -1155.16 1.66837e-10 1285.19 -1208.35 1.96589e-10 1339.32 -1260.32 2.23065e-10 1392.11 -1311.07 2.46758e-10 1443.58 -1360.61 2.67559e-10 1493.75 -1408.93 2.8605e-10 1542.65 -1456.03 3.02581e-10 1590.28 -1501.93 3.16886e-10 1636.66 -1546.61 3.2953e-10 1681.82 -1590.1 3.40751e-10 1725.75 -1632.39 3.50719e-10 1768.48 -1673.49 3.5936e-10 1810.03 -1713.41 3.66689e-10 1850.39 -1752.16 3.72807e-10 1866.64 -1767.53 3.80392e-10 1859.49 -1760.28 3.88512e-10 1852.16 -1752.89 3.95932e-10 1844.63 -1745.36 4.02268e-10 1836.92 -1737.7 4.07614e-10 1829.03 -1729.89 4.12029e-10 1820.96 -1721.94 4.15529e-10 1812.73 -1713.84 4.18518e-10 1804.33 -1705.61 4.20799e-10 1795.76 -1697.24 4.224e-10 1787.04 -1688.74 4.2334e-10 1778.15 -1680.09 4.24109e-10 1769.12 -1671.31 4.24158e-10 1759.94 -1662.4 4.23325e-10 1750.6 -1653.35 4.22596e-10 1100.76 -1172.84 1.2404e-10 1155.16 -1229.71 1.56714e-10 1208.35 -1285.19 1.85082e-10 1260.32 -1339.32 2.10689e-10 1311.07 -1392.11 2.33206e-10 1360.61 -1443.58 2.53267e-10 1408.93 -1493.75 2.71159e-10 1456.03 -1542.65 2.86917e-10 1501.93 -1590.28 3.00538e-10 1546.61 -1636.66 3.13174e-10 1590.1 -1681.82 3.23682e-10 1632.39 -1725.75 3.33272e-10 1673.49 -1768.48 3.41537e-10 1713.41 -1810.03 3.48676e-10 1752.16 -1850.39 3.54841e-10 1767.53 -1866.64 3.61907e-10 1760.28 -1859.49 3.70527e-10 1752.89 -1852.16 3.77884e-10 1745.36 -1844.63 3.84152e-10 1737.7 -1836.92 3.89269e-10 1729.89 -1829.03 3.93913e-10 1721.94 -1820.96 3.97815e-10 1713.84 -1812.73 4.00805e-10 1705.61 -1804.33 4.02967e-10 1697.24 -1795.76 4.04691e-10 1688.74 -1787.04 4.05953e-10 1680.09 -1778.15 4.06366e-10 1671.31 -1769.12 4.06926e-10 1662.4 -1759.94 4.06609e-10 1653.35 -1750.6 4.05806e-10 1027.76 -1244 1.05026e-10 1079.27 -1302.93 1.35636e-10 1129.77 -1360.34 1.63078e-10 1179.24 -1416.28 1.87041e-10 1227.63 -1470.78 2.08517e-10 1274.94 -1523.9 2.27783e-10 1321.13 -1575.66 2.44864e-10 1366.2 -1626.09 2.59854e-10 1410.13 -1675.23 2.7309e-10 1452.91 -1723.1 2.8488e-10 1494.54 -1769.73 2.95228e-10 1535.02 -1815.13 3.04629e-10 1574.34 -1859.32 3.12625e-10 1612.5 -1902.34 3.1893e-10 1649.51 -1944.18 3.25147e-10 1663.9 -1961.21 3.31928e-10 1656.51 -1954.1 3.4052e-10 1649.04 -1946.76 3.47802e-10 1641.48 -1939.19 3.54535e-10 1633.84 -1931.41 3.59743e-10 1626.1 -1923.41 3.64468e-10 1618.26 -1915.22 3.68165e-10 1610.33 -1906.83 3.71235e-10 1602.28 -1898.25 3.73479e-10 1594.13 -1889.49 3.75574e-10 1585.87 -1880.56 3.76996e-10 1577.5 -1871.46 3.7853e-10 1569.02 -1862.19 3.78495e-10 1560.42 -1852.76 3.78758e-10 1551.71 -1843.18 3.78158e-10 953.864 -1314.26 8.60676e-11 1002.02 -1374.87 1.15079e-10 1049.44 -1433.84 1.40455e-10 1096.03 -1491.25 1.63083e-10 1141.73 -1547.15 1.83666e-10 1186.5 -1601.62 2.02004e-10 1230.29 -1654.69 2.17913e-10 1273.07 -1706.41 2.32032e-10 1314.82 -1756.81 2.44371e-10 1355.5 -1805.95 2.56048e-10 1395.09 -1853.83 2.65096e-10 1433.59 -1900.5 2.74345e-10 1470.99 -1945.98 2.81807e-10 1507.26 -1990.3 2.8775e-10 1542.42 -2033.47 2.94726e-10 1555.78 -2051.17 3.01816e-10 1548.2 -2044.02 3.1025e-10 1540.62 -2036.6 3.17702e-10 1533.03 -2028.93 3.25344e-10 1525.41 -2021.02 3.30782e-10 1517.75 -2012.87 3.35412e-10 1510.05 -2004.51 3.39363e-10 1502.29 -1995.94 3.42765e-10 1494.47 -1987.16 3.45455e-10 1486.59 -1978.19 3.47925e-10 1478.63 -1969.04 3.50866e-10 1470.59 -1959.72 3.52065e-10 1462.47 -1950.22 3.51707e-10 1454.26 -1940.56 3.52785e-10 1445.96 -1930.74 3.52756e-10 879.13 -1383.69 6.72541e-11 923.454 -1445.58 9.39789e-11 967.334 -1505.75 1.18088e-10 1010.65 -1564.28 1.40392e-10 1053.31 -1621.26 1.58633e-10 1095.23 -1676.77 1.75869e-10 1136.34 -1730.87 1.91662e-10 1176.58 -1783.6 2.05589e-10 1215.91 -1835.03 2.17295e-10 1254.29 -1885.18 2.28158e-10 1291.68 -1934.11 2.36942e-10 1328.05 -1981.84 2.45264e-10 1363.38 -2028.41 2.52533e-10 1397.65 -2073.84 2.59139e-10 1430.85 -2118.16 2.66396e-10 1443.12 -2136.39 2.72559e-10 1435.34 -2129.1 2.80718e-10 1427.65 -2121.53 2.89393e-10 1420.02 -2113.67 2.96648e-10 1412.44 -2105.56 3.02407e-10 1404.9 -2097.2 3.06901e-10 1397.37 -2088.61 3.13081e-10 1389.84 -2079.8 3.15388e-10 1382.3 -2070.79 3.18738e-10 1374.74 -2061.57 3.21391e-10 1367.16 -2052.17 3.24387e-10 1359.53 -2042.59 3.2525e-10 1351.86 -2032.83 3.26084e-10 1344.14 -2022.92 3.26986e-10 1336.36 -2012.84 3.28626e-10 803.649 -1452.37 4.81855e-11 843.594 -1515.15 7.3986e-11 883.462 -1576.13 9.63401e-11 923.085 -1635.44 1.17023e-10 962.323 -1693.16 1.3506e-10 1001.06 -1749.4 1.49989e-10 1039.19 -1804.22 1.65786e-10 1076.63 -1857.68 1.78943e-10 1113.32 -1909.85 1.89338e-10 1149.19 -1960.77 1.98766e-10 1184.19 -2010.49 2.07628e-10 1218.28 -2059.05 2.16077e-10 1251.43 -2106.49 2.23686e-10 1283.59 -2152.83 2.30242e-10 1314.75 -2198.1 2.36241e-10 1325.88 -2216.7 2.42022e-10 1317.89 -2209.17 2.50909e-10 1310.1 -2201.32 2.59328e-10 1302.46 -2193.18 2.66476e-10 1294.96 -2184.78 2.72919e-10 1287.57 -2176.12 2.78476e-10 1280.27 -2167.23 2.83421e-10 1273.04 -2158.11 2.88314e-10 1265.86 -2148.78 2.92138e-10 1258.72 -2139.25 2.94466e-10 1251.61 -2129.54 2.96432e-10 1244.5 -2119.65 2.99324e-10 1237.4 -2109.6 3.01824e-10 1230.29 -2099.38 3.01756e-10 1223.15 -2089.01 3.0334e-10 727.547 -1520.43 2.85953e-11 762.507 -1583.68 5.23699e-11 797.833 -1645.09 7.30178e-11 833.296 -1704.79 9.1229e-11 868.704 -1762.9 1.08442e-10 903.897 -1819.52 1.2401e-10 938.737 -1874.74 1.37259e-10 973.111 -1928.62 1.48768e-10 1006.92 -1981.24 1.61059e-10 1040.08 -2032.65 1.6923e-10 1072.53 -2082.89 1.77904e-10 1104.19 -2132.03 1.8633e-10 1135.03 -2180.08 1.95215e-10 1164.99 -2227.09 1.98822e-10 1194.04 -2273.1 2.04971e-10 1203.99 -2291.89 2.11125e-10 1195.81 -2283.96 2.20488e-10 1187.94 -2275.71 2.27774e-10 1180.34 -2267.16 2.36261e-10 1172.97 -2258.35 2.43783e-10 1165.8 -2249.28 2.50032e-10 1158.82 -2239.97 2.54597e-10 1151.98 -2230.45 2.60087e-10 1145.26 -2220.72 2.63357e-10 1138.66 -2210.79 2.66753e-10 1132.14 -2200.68 2.69978e-10 1125.69 -2190.41 2.72656e-10 1119.3 -2179.97 2.73777e-10 1112.95 -2169.39 2.75551e-10 1106.63 -2158.66 2.78434e-10 650.995 -1588.04 8.49596e-12 680.284 -1651.31 3.01179e-11 710.475 -1712.71 5.15287e-11 741.264 -1772.41 6.83886e-11 772.398 -1830.51 8.3732e-11 803.663 -1887.15 9.84673e-11 834.88 -1942.41 1.12226e-10 865.897 -1996.38 1.22554e-10 896.585 -2049.12 1.31901e-10 926.833 -2100.7 1.41906e-10 956.548 -2151.17 1.48224e-10 985.647 -2200.59 1.55533e-10 1014.06 -2248.98 1.63127e-10 1041.73 -2296.4 1.70464e-10 1068.61 -2342.87 1.75144e-10 1077.38 -2361.65 1.80829e-10 1069.03 -2353.15 1.90277e-10 1061.13 -2344.34 1.97857e-10 1053.63 -2335.24 2.06632e-10 1046.47 -2325.87 2.12905e-10 1039.63 -2316.25 2.21265e-10 1033.06 -2306.4 2.25274e-10 1026.74 -2296.34 2.30828e-10 1020.63 -2286.08 2.35216e-10 1014.7 -2275.64 2.39072e-10 1008.94 -2265.02 2.44037e-10 1003.32 -2254.25 2.46023e-10 997.824 -2243.33 2.47533e-10 992.43 -2232.27 2.49949e-10 987.123 -2221.08 2.54641e-10 574.216 -1655.42 -1.27153e-11 597.049 -1718.22 9.58119e-12 621.434 -1779.15 2.78258e-11 646.975 -1838.38 4.42222e-11 673.343 -1896.06 5.77815e-11 700.261 -1952.3 7.23064e-11 727.497 -2007.21 8.4776e-11 754.855 -2060.87 9.45471e-11 782.167 -2113.37 1.05496e-10 809.292 -2164.78 1.14396e-10 836.106 -2215.14 1.20495e-10 862.505 -2264.51 1.27151e-10 888.399 -2312.94 1.33866e-10 913.709 -2360.45 1.41293e-10 938.369 -2407.1 1.45461e-10 945.96 -2425.61 1.5265e-10 937.501 -2416.36 1.61478e-10 929.643 -2406.8 1.72447e-10 922.325 -2396.96 1.77702e-10 915.492 -2386.85 1.85377e-10 909.095 -2376.51 1.95662e-10 903.089 -2365.96 2.00065e-10 897.434 -2355.2 2.06999e-10 892.094 -2344.26 2.08892e-10 887.036 -2333.14 2.12137e-10 882.23 -2321.87 2.17513e-10 877.65 -2310.46 2.21111e-10 873.271 -2298.91 2.24598e-10 869.069 -2287.24 2.24913e-10 865.025 -2275.45 2.27162e-10 497.502 -1722.86 -3.45719e-11 512.968 -1784.64 -1.46331e-11 530.779 -1844.56 2.22221e-12 550.424 -1902.82 1.89251e-11 571.478 -1959.57 3.12275e-11 593.588 -2014.95 4.38222e-11 616.456 -2069.07 5.58426e-11 639.833 -2122.01 6.61373e-11 663.505 -2173.86 7.3652e-11 687.292 -2224.69 8.07457e-11 711.039 -2274.55 9.16683e-11 734.611 -2323.51 9.86233e-11 757.894 -2371.61 1.01563e-10 780.789 -2418.88 1.0776e-10 803.21 -2465.37 1.13427e-10 809.653 -2483.32 1.21352e-10 801.159 -2473.08 1.29251e-10 793.444 -2462.55 1.38827e-10 786.435 -2451.75 1.48929e-10 780.065 -2440.7 1.5655e-10 774.275 -2429.44 1.62283e-10 769.009 -2417.98 1.70087e-10 764.221 -2406.33 1.76122e-10 759.866 -2394.51 1.81758e-10 755.904 -2382.54 1.84929e-10 752.299 -2370.43 1.89909e-10 749.019 -2358.2 1.96621e-10 746.033 -2345.84 1.97508e-10 743.314 -2333.38 2.00693e-10 740.836 -2320.82 2.04159e-10 421.227 -1790.75 -5.80153e-11 428.256 -1850.83 -4.00282e-11 438.607 -1909.13 -2.28848e-11 451.617 -1965.84 -9.6249e-12 466.743 -2021.12 1.35651e-12 483.534 -2075.1 1.3371e-11 501.614 -2127.91 2.4282e-11 520.666 -2179.64 3.42733e-11 540.422 -2230.37 4.21191e-11 560.655 -2280.17 4.98656e-11 581.17 -2329.11 5.74068e-11 601.799 -2377.23 6.57592e-11 622.4 -2424.59 7.18174e-11 642.846 -2471.22 7.72502e-11 663.03 -2517.15 7.82423e-11 668.385 -2534.23 8.42044e-11 659.966 -2522.73 9.89127e-11 652.531 -2510.96 1.0788e-10 645.991 -2498.95 1.14437e-10 640.267 -2486.72 1.23329e-10 635.287 -2474.29 1.3352e-10 630.988 -2461.68 1.38571e-10 627.311 -2448.91 1.43662e-10 624.205 -2435.99 1.52922e-10 621.622 -2422.94 1.54909e-10 619.519 -2409.76 1.62753e-10 617.858 -2396.48 1.64771e-10 616.603 -2383.11 1.72731e-10 615.72 -2369.64 1.7491e-10 615.182 -2356.09 1.78829e-10 345.882 -1859.56 -8.34146e-11 343.202 -1917.18 -6.61749e-11 345.051 -1973.12 -5.26242e-11 350.575 -2027.58 -3.95519e-11 359.076 -2080.73 -2.84166e-11 369.98 -2132.71 -1.63065e-11 382.811 -2183.63 -9.70481e-12 397.171 -2233.58 -3.01145e-13 412.723 -2282.66 9.03553e-12 429.184 -2330.92 1.5212e-11 446.311 -2378.43 2.17835e-11 463.897 -2425.23 2.78425e-11 481.763 -2471.38 3.27033e-11 499.754 -2516.91 3.79401e-11 517.738 -2561.85 4.27356e-11 522.101 -2577.67 4.983e-11 513.908 -2564.6 6.08813e-11 506.932 -2551.29 7.10632e-11 501.067 -2537.77 8.04098e-11 496.22 -2524.06 8.6742e-11 492.308 -2510.18 9.79315e-11 489.254 -2496.15 1.02339e-10 486.992 -2481.98 1.06173e-10 485.46 -2467.68 1.16458e-10 484.604 -2453.28 1.22477e-10 484.372 -2438.78 1.25376e-10 484.72 -2424.19 1.32982e-10 485.606 -2409.52 1.38253e-10 486.992 -2394.78 1.42237e-10 488.844 -2379.98 1.46071e-10 272.112 -1929.95 -1.10957e-10 258.18 -1984.14 -9.5085e-11 250.293 -2036.84 -8.39525e-11 247.338 -2088.23 -7.19332e-11 248.417 -2138.48 -6.12007e-11 252.798 -2187.73 -5.16694e-11 259.875 -2236.07 -4.18865e-11 269.148 -2283.6 -3.35869e-11 280.198 -2330.4 -2.91041e-11 292.671 -2376.52 -2.10818e-11 306.266 -2422.03 -1.58091e-11 320.727 -2466.96 -1.19222e-11 335.836 -2511.36 -4.94099e-12 351.401 -2555.27 1.27248e-12 367.261 -2598.71 2.65918e-12 370.774 -2612.84 1.00888e-11 363.007 -2597.84 2.13938e-11 356.721 -2582.65 3.13903e-11 351.794 -2567.28 4.14899e-11 348.116 -2551.76 5.14542e-11 345.59 -2536.09 5.97548e-11 344.129 -2520.31 6.41174e-11 343.654 -2504.42 6.79691e-11 344.096 -2488.44 8.08966e-11 345.389 -2472.36 8.71959e-11 347.478 -2456.22 9.30356e-11 350.309 -2440.01 9.30658e-11 353.835 -2423.74 1.01501e-10 358.012 -2407.42 1.06063e-10 362.801 -2391.05 1.10547e-10 200.771 -2002.77 -1.4207e-10 173.69 -2052.33 -1.28637e-10 154.579 -2100.68 -1.17772e-10 141.975 -2148.01 -1.06853e-10 134.711 -2194.44 -9.9047e-11 131.845 -2240.08 -8.79672e-11 132.611 -2285.05 -8.01399e-11 136.376 -2329.39 -7.44188e-11 142.615 -2373.19 -6.67481e-11 150.889 -2416.49 -6.32244e-11 160.826 -2459.33 -5.70784e-11 172.111 -2501.76 -5.1224e-11 184.477 -2543.8 -4.30805e-11 197.691 -2585.49 -4.39416e-11 211.555 -2626.85 -4.07537e-11 214.417 -2638.8 -3.31796e-11 207.336 -2621.46 -2.16237e-11 202.037 -2603.98 -9.49758e-12 198.377 -2586.37 -1.6871e-12 196.231 -2568.65 7.72803e-12 195.486 -2550.83 1.45065e-11 196.043 -2532.93 2.04619e-11 197.812 -2514.95 3.16253e-11 200.712 -2496.91 3.84177e-11 204.671 -2478.8 4.32126e-11 209.624 -2460.65 4.92086e-11 215.511 -2442.45 5.48346e-11 222.279 -2424.22 6.07155e-11 229.878 -2405.95 6.16158e-11 238.265 -2387.66 7.12535e-11 133.017 -2079.18 -1.76613e-10 90.4046 -2122.55 -1.65211e-10 58.2448 -2165.18 -1.53189e-10 34.5879 -2207.19 -1.43968e-10 17.9025 -2248.66 -1.34614e-10 6.96915 -2289.68 -1.28401e-10 0.805118 -2330.3 -1.18724e-10 -1.39049 -2370.57 -1.13535e-10 -0.276779 -2410.52 -1.09237e-10 3.59894 -2450.19 -1.03319e-10 9.77847 -2489.62 -9.97119e-11 17.8754 -2528.81 -9.40037e-11 27.5615 -2567.79 -9.28933e-11 38.5565 -2606.58 -8.63913e-11 50.6193 -2645.2 -8.2754e-11 53.1002 -2654.41 -7.8511e-11 47.0378 -2634.26 -6.13712e-11 43.0986 -2614.05 -5.28243e-11 41.1185 -2593.76 -4.41747e-11 40.9531 -2573.41 -3.38243e-11 42.4744 -2553.01 -2.77699e-11 45.5687 -2532.57 -1.96913e-11 50.1346 -2512.08 -1.14425e-11 56.0816 -2491.56 -4.58406e-12 63.3282 -2471.01 2.67786e-12 71.8012 -2450.44 8.70746e-12 81.4345 -2429.84 1.23061e-11 92.1683 -2409.23 1.55119e-11 103.948 -2388.6 2.90154e-11 116.725 -2367.96 3.19015e-11 70.4502 -2160.77 -2.1646e-10 9.24091 -2195.9 -2.05874e-10 -38.2501 -2231.02 -1.95499e-10 -74.668 -2266.14 -1.87079e-10 -102.052 -2301.27 -1.80417e-10 -122.001 -2336.39 -1.72589e-10 -135.785 -2371.51 -1.64837e-10 -144.426 -2406.64 -1.58659e-10 -148.754 -2441.76 -1.55671e-10 -149.455 -2476.88 -1.55113e-10 -147.094 -2512 -1.47097e-10 -142.147 -2547.13 -1.43578e-10 -135.013 -2582.25 -1.39271e-10 -126.032 -2617.37 -1.36336e-10 -115.494 -2652.5 -1.28466e-10 -113.037 -2658.33 -1.27176e-10 -117.658 -2634.87 -1.15871e-10 -119.769 -2611.41 -1.04353e-10 -119.56 -2587.95 -9.29166e-11 -117.193 -2564.48 -8.32178e-11 -112.814 -2541.02 -7.76753e-11 -106.551 -2517.56 -6.92194e-11 -98.5176 -2494.1 -6.12018e-11 -88.8146 -2470.64 -5.35648e-11 -77.5325 -2447.18 -4.59379e-11 -64.7521 -2423.72 -3.64406e-11 -50.5462 -2400.26 -3.29286e-11 -34.9803 -2376.8 -2.16005e-11 -18.1137 -2353.34 -1.63709e-11 0 -2329.88 -1.56618e-11 1807.5 -58.932 2.14641e-10 1836.88 -7.73007 2.28077e-10 1866.26 31.9964 2.37577e-10 1895.64 62.4601 2.48413e-10 1925.02 85.3673 2.57356e-10 1954.4 102.055 2.65274e-10 1983.78 113.585 2.72172e-10 2013.16 120.813 2.80384e-10 2042.54 124.434 2.82711e-10 2071.92 125.019 2.90132e-10 2101.3 123.045 2.94686e-10 2130.68 118.906 2.99359e-10 2160.06 112.939 3.0358e-10 2189.45 105.426 3.08371e-10 2218.83 96.6109 3.11766e-10 2223.7 94.556 3.22297e-10 2204.08 98.4211 3.38154e-10 2184.45 100.188 3.57579e-10 2164.83 100.012 3.68502e-10 2145.2 98.0324 3.8548e-10 2125.58 94.3695 3.93511e-10 2105.95 89.1305 4.06113e-10 2086.33 82.4105 4.2356e-10 2066.7 74.2939 4.29825e-10 2047.08 64.8563 4.40985e-10 2027.45 54.1654 4.48568e-10 2007.83 42.2821 4.60991e-10 1988.2 29.2612 4.66055e-10 1968.58 15.1522 4.77264e-10 1948.95 -1.22598e-13 4.8738e-10 1739.24 -111.27 1.93399e-10 1775.52 -75.6239 2.07509e-10 1811.18 -48.7221 2.22267e-10 1846.32 -28.933 2.30256e-10 1881.02 -14.9755 2.44067e-10 1915.33 -5.82973 2.50708e-10 1949.31 -0.673485 2.60394e-10 1982.99 1.16315 2.66235e-10 2016.41 0.231527 2.72843e-10 2049.6 -3.01053 2.79201e-10 2082.58 -8.17973 2.84163e-10 2115.36 -14.9528 2.89044e-10 2147.97 -23.0553 2.94887e-10 2180.42 -32.2527 2.97257e-10 2212.72 -42.3432 3.01621e-10 2220.42 -44.4186 3.08564e-10 2203.57 -39.3474 3.26114e-10 2186.66 -36.0522 3.37757e-10 2169.69 -34.3958 3.53178e-10 2152.67 -34.2575 3.68962e-10 2135.61 -35.53 3.81782e-10 2118.5 -38.1184 3.87798e-10 2101.37 -41.9379 3.98608e-10 2084.2 -46.9125 4.08888e-10 2067.01 -52.9743 4.2045e-10 2049.8 -60.062 4.31913e-10 2032.57 -68.1203 4.37585e-10 2015.33 -77.0992 4.43529e-10 1998.08 -86.9532 4.54735e-10 1980.81 -97.641 4.57432e-10 1675.33 -167.946 1.74704e-10 1716.78 -145.293 1.90816e-10 1757.23 -129.306 2.0534e-10 1796.82 -118.763 2.17786e-10 1835.66 -112.686 2.28378e-10 1873.84 -110.289 2.36196e-10 1911.45 -110.93 2.4353e-10 1948.55 -114.079 2.50839e-10 1985.18 -119.298 2.59175e-10 2021.4 -126.219 2.64374e-10 2057.24 -134.532 2.71705e-10 2092.73 -143.972 2.77854e-10 2127.9 -154.316 2.80695e-10 2162.77 -165.37 2.83948e-10 2197.37 -176.967 2.88269e-10 2207.37 -179.361 2.94136e-10 2192.86 -173.438 3.11634e-10 2178.24 -169.005 3.26941e-10 2163.51 -165.944 3.3787e-10 2148.69 -164.148 3.45354e-10 2133.78 -163.525 3.5785e-10 2118.81 -163.991 3.6917e-10 2103.77 -165.47 3.76293e-10 2088.67 -167.896 3.87313e-10 2073.53 -171.208 3.95577e-10 2058.35 -175.351 4.0075e-10 2043.12 -180.276 4.10561e-10 2027.87 -185.937 4.17066e-10 2012.59 -192.294 4.22886e-10 1997.29 -199.309 4.27123e-10 1614.42 -227.623 1.59599e-10 1659.75 -215.969 1.76272e-10 1703.82 -209.371 1.91929e-10 1746.81 -206.9 2.04855e-10 1788.85 -207.802 2.15626e-10 1830.04 -211.466 2.26234e-10 1870.48 -217.387 2.33497e-10 1910.24 -225.144 2.42997e-10 1949.39 -234.387 2.5167e-10 1987.97 -244.82 2.56092e-10 2026.04 -256.193 2.62789e-10 2063.62 -268.29 2.67805e-10 2100.77 -280.928 2.71211e-10 2137.49 -293.949 2.76965e-10 2173.83 -307.215 2.80853e-10 2185.65 -310.154 2.87684e-10 2173.11 -303.657 3.01367e-10 2160.4 -298.399 3.13163e-10 2147.54 -294.277 3.26307e-10 2134.56 -291.201 3.35453e-10 2121.46 -289.088 3.45298e-10 2108.25 -287.865 3.54174e-10 2094.96 -287.468 3.62675e-10 2081.59 -287.838 3.69229e-10 2068.14 -288.92 3.76065e-10 2054.64 -290.667 3.82541e-10 2041.08 -293.035 3.88871e-10 2027.47 -295.985 3.98728e-10 2013.82 -299.479 3.9748e-10 2000.13 -303.485 4.04194e-10 1555.53 -289.332 1.46561e-10 1603.73 -287.09 1.63879e-10 1650.52 -288.637 1.78653e-10 1696.08 -293.257 1.92894e-10 1740.54 -300.369 2.03509e-10 1784.02 -309.49 2.14812e-10 1826.62 -320.224 2.25384e-10 1868.4 -332.235 2.32673e-10 1909.45 -345.245 2.41041e-10 1949.82 -359.015 2.45792e-10 1989.56 -373.342 2.53798e-10 2028.72 -388.052 2.59295e-10 2067.32 -402.997 2.64042e-10 2105.4 -418.047 2.66144e-10 