<?xml version="1.0"?> 
<VTKFile type="StructuredGrid" version="0.1"> 
<StructuredGrid WholeExtent="0 14 0 14 0 29"> 
<Piece Extent="0 14 0 14 0 29"> 
<PointData>
<DataArray type="Float32" Name="hfield" format="ascii" NumberOfComponents="3"> 
22.5215 -0.421635 0.392835 21.643 1.84739 0.168213 20.8331 3.2484 -0.00988819 20.0845 4.02419 -0.154565 19.3908 4.32738 -0.274418 18.7467 4.25552 -0.375333 18.1476 3.87034 -0.461469 17.5894 3.20868 -0.535852 15.4888 2.92579 -0.426137 13.3159 2.63204 -0.329595 11.0364 2.3006 -0.243988 8.60739 1.90428 -0.167559 5.97433 1.41298 -0.0989054 3.06512 0.79048 -0.0368992 -0.218771 -0.00998336 0.0193808 20.9831 -2.04031 0.293115 20.6119 -0.593723 0.126864 20.2498 0.287426 -0.00750995 19.9111 0.747592 -0.117892 19.6054 0.881814 -0.20977 19.3399 0.752889 -0.28708 19.1206 0.401431 -0.352719 18.9534 -0.148187 -0.408866 16.8772 -0.00977402 -0.324314 14.7713 0.104581 -0.250019 12.6017 0.180563 -0.184364 10.3268 0.20338 -0.126058 7.89433 0.156134 -0.074051 5.23443 0.0177272 -0.0274834 2.25036 -0.240232 0.0143556 19.5707 -3.7851 0.220143 19.5023 -2.9014 0.0958323 19.4211 -2.39437 -0.00569307 19.3483 -2.17449 -0.0895329 19.2999 -2.18148 -0.159381 19.2887 -2.37509 -0.217979 19.3265 -2.72946 -0.267404 19.4249 -3.22981 -0.309258 17.4038 -2.75544 -0.244586 15.3852 -2.31564 -0.187899 13.3366 -1.91535 -0.138011 11.2195 -1.55968 -0.0939528 8.98476 -1.25463 -0.0549305 6.56708 -1.00816 -0.020284 3.8745 -0.831682 0.0105385 18.1936 -5.56513 0.162949 18.3063 -5.07801 0.0711523 18.4004 -4.84247 -0.00423384 18.4984 -4.80307 -0.066617 18.618 -4.92245 -0.118536 18.7744 -5.17605 -0.161923 18.982 -5.54898 -0.19827 19.2555 -6.03419 -0.228751 17.3088 -5.28429 -0.180393 15.3886 -4.57817 -0.138125 13.4649 -3.91359 -0.101078 11.5022 -3.28795 -0.0685338 9.45578 -2.69832 -0.0398956 7.26576 -2.14142 -0.0146643 4.84707 -1.61343 0.00758172 16.8039 -7.33251 0.115497 17.0185 -7.12765 0.0505104 17.2173 -7.08812 -0.00300744 17.4211 -7.18143 -0.047314 17.6469 -7.38627 -0.0841242 17.9101 -7.68961 -0.114765 18.2259 -8.08505 -0.140277 18.6104 -8.57192 -0.16149 16.7528 -7.59046 -0.127028 14.9393 -6.66084 -0.0969863 13.1421 -5.77518 -0.0707497 11.3292 -4.92473 -0.0478063 9.46029 -4.09918 -0.0277275 7.48159 -3.28569 -0.010152 5.31614 -2.46696 0.00522719 15.3747 -9.0604 0.0740901 15.6345 -9.05499 0.0324257 15.8874 -9.15399 -0.00193093 16.1505 -9.34124 -0.0303675 16.4387 -9.60721 -0.0539524 16.766 -9.94765 -0.0735209 17.147 -10.3628 -0.0897357 17.5974 -10.8573 -0.103129 15.843 -9.67742 -0.0809615 14.1441 -8.55587 -0.0616789 12.4757 -7.48028 -0.0448855 10.8091 -6.43682 -0.0302507 9.10862 -5.40905 -0.0174965 7.32666 -4.37591 -0.00638711 5.39502 -3.30822 0.00327841 13.8908 -10.7337 0.0362242 14.1503 -10.8648 0.0158584 14.4175 -11.0568 -0.000944341 14.7047 -11.3056 -0.0148471 15.0229 -11.6105 -0.0263639 15.3836 -11.9741 -0.0358994 15.7995 -12.4018 -0.0437763 16.285 -12.9026 -0.0502552 14.6481 -11.5502 -0.039404 13.0731 -10.2605 -0.0299778 11.5379 -9.0174 -0.0217828 10.0171 -7.80271 -0.0146568 8.47945 -6.59471 -0.00846249 6.88374 -5.36511 -0.00308353 5.17085 -4.07406 0.00157964 12.3447 -12.3447 -6.53898e-11 12.5618 -12.5618 -4.17674e-11 12.8086 -12.8086 -2.18924e-11 13.0903 -13.0903 -5.33801e-12 13.413 -13.413 8.37223e-12 13.7842 -13.7842 1.9997e-11 14.2136 -14.2136 2.95686e-11 14.7135 -14.7135 3.75893e-11 13.2098 -13.2098 1.08357e-11 11.7703 -11.7703 -1.2374e-11 10.3756 -10.3756 -3.15152e-11 9.00376 -9.00376 -4.83042e-11 7.62828 -7.62828 -6.24673e-11 6.21421 -6.21421 -7.42995e-11 4.71183 -4.71183 -8.43267e-11 10.7337 -13.8908 -0.0362242 10.8648 -14.1503 -0.0158584 11.0568 -14.4175 0.000944341 11.3056 -14.7047 0.0148471 11.6105 -15.0229 0.0263639 11.9741 -15.3836 0.0358994 12.4018 -15.7995 0.0437763 12.9026 -16.285 0.0502552 11.5502 -14.6481 0.039404 10.2605 -13.0731 0.0299778 9.0174 -11.5379 0.0217828 7.80271 -10.0171 0.0146568 6.59471 -8.47945 0.00846249 5.36511 -6.88374 0.00308353 4.07406 -5.17085 -0.00157964 9.0604 -15.3747 -0.0740901 9.05499 -15.6345 -0.0324257 9.15399 -15.8874 0.00193093 9.34124 -16.1505 0.0303675 9.60721 -16.4387 0.0539524 9.94765 -16.766 0.0735209 10.3628 -17.147 0.0897357 10.8573 -17.5974 0.103129 9.67742 -15.843 0.0809615 8.55587 -14.1441 0.0616789 7.48028 -12.4757 0.0448855 6.43682 -10.8091 0.0302507 5.40905 -9.10862 0.0174965 4.37591 -7.32666 0.00638711 3.30822 -5.39502 -0.00327841 7.33251 -16.8039 -0.115497 7.12765 -17.0185 -0.0505104 7.08812 -17.2173 0.00300744 7.18143 -17.4211 0.047314 7.38627 -17.6469 0.0841242 7.68961 -17.9101 0.114765 8.08505 -18.2259 0.140277 8.57192 -18.6104 0.16149 7.59046 -16.7528 0.127028 6.66084 -14.9393 0.0969863 5.77518 -13.1421 0.0707497 4.92473 -11.3292 0.0478063 4.09918 -9.46029 0.0277275 3.28569 -7.48159 0.010152 2.46696 -5.31614 -0.00522719 5.56513 -18.1936 -0.162949 5.07801 -18.3063 -0.0711523 4.84247 -18.4004 0.00423383 4.80307 -18.4984 0.066617 4.92245 -18.618 0.118536 5.17605 -18.7744 0.161923 5.54898 -18.982 0.19827 6.03419 -19.2555 0.228751 5.28429 -17.3088 0.180393 4.57817 -15.3886 0.138125 3.91359 -13.4649 0.101078 3.28795 -11.5022 0.0685338 2.69832 -9.45578 0.0398956 2.14142 -7.26576 0.0146643 1.61343 -4.84707 -0.00758172 3.7851 -19.5707 -0.220143 2.9014 -19.5023 -0.0958323 2.39437 -19.4211 0.00569307 2.17449 -19.3483 0.0895329 2.18148 -19.2999 0.159381 2.37509 -19.2887 0.217979 2.72946 -19.3265 0.267404 3.22981 -19.4249 0.309258 2.75544 -17.4038 0.244586 2.31564 -15.3852 0.187899 1.91535 -13.3366 0.138011 1.55968 -11.2195 0.0939528 1.25463 -8.98476 0.0549305 1.00816 -6.56708 0.020284 0.831682 -3.8745 -0.0105385 2.04031 -20.9831 -0.293115 0.593723 -20.6119 -0.126864 -0.287426 -20.2498 0.00750995 -0.747592 -19.9111 0.117892 -0.881814 -19.6054 0.20977 -0.752889 -19.3399 0.28708 -0.401431 -19.1206 0.352719 0.148187 -18.9534 0.408866 0.00977402 -16.8772 0.324314 -0.104581 -14.7713 0.250019 -0.180563 -12.6017 0.184364 -0.20338 -10.3268 0.126058 -0.156134 -7.89433 0.074051 -0.0177272 -5.23443 0.0274834 0.240232 -2.25036 -0.0143556 0.421635 -22.5215 -0.392835 -1.84739 -21.643 -0.168213 -3.2484 -20.8331 0.00988819 -4.02419 -20.0845 0.154565 -4.32738 -19.3908 0.274418 -4.25552 -18.7467 0.375333 -3.87034 -18.1476 0.461469 -3.20868 -17.5894 0.535852 -2.92579 -15.4888 0.426137 -2.63204 -13.3159 0.329595 -2.3006 -11.0364 0.243988 -1.90428 -8.60739 0.167559 -1.41298 -5.97433 0.0989054 -0.79048 -3.06512 0.0368992 0.00998336 0.218771 -0.0193808 129.913 5.73125 2.52594 141.139 6.61415 1.85052 152.271 7.01411 1.51046 163.326 7.28481 1.38082 174.33 7.65055 1.39128 185.314 8.26298 1.50294 196.318 9.23147 1.6962 207.394 10.6406 1.96402 222.158 10.2099 2.84042 237.132 9.06259 3.3344 252.429 7.45712 3.44783 268.193 5.59017 3.18546 284.607 3.61376 2.5525 301.903 1.64764 1.55242 320.382 -0.211376 0.184647 120.069 -3.80295 0.53149 131.901 -5.82772 0.295142 143.481 -7.83378 0.240415 154.847 -9.64574 0.298854 166.035 -11.1474 0.43231 177.083 -12.2579 0.621236 188.035 -12.9183 0.858123 198.942 -13.0827 1.14368 215.958 -16.0891 1.80861 232.887 -19.2841 2.1835 249.867 -22.5011 2.27776 267.058 -25.6143 2.1048 284.657 -28.5285 1.68013 302.912 -31.1708 1.01973 322.14 -33.4846 0.138697 110.839 -13.9504 -0.491445 122.855 -18.1728 -0.514382 134.534 -22.1054 -0.43489 145.912 -25.6598 -0.294086 157.024 -28.7772 -0.114019 167.906 -31.4175 0.0954969 178.599 -33.5532 0.332852 189.153 -35.1641 0.602204 207.444 -40.7231 1.09761 225.426 -46.0926 1.37629 243.24 -51.1772 1.45161 261.052 -55.9104 1.34107 279.063 -60.2492 1.06484 297.527 -64.1693 0.64468 316.765 -67.6623 0.103086 101.83 -24.3189 -0.914848 113.775 -30.2656 -0.844411 125.323 -35.7744 -0.715315 136.506 -40.802 -0.553593 147.353 -45.3217 -0.372473 157.896 -49.3178 -0.176719 168.175 -52.7825 0.0347165 178.234 -55.7137 0.267034 197.036 -63.7179 0.626217 215.356 -71.2688 0.82753 233.333 -78.3262 0.885217 251.13 -84.8735 0.817276 268.946 -90.9144 0.644334 287.032 -96.4725 0.3889 305.71 -101.591 0.0749446 92.8232 -34.69 -0.956425 104.521 -42.0228 -0.860546 115.774 -48.8402 -0.731423 126.608 -55.1236 -0.585667 137.047 -60.8647 -0.431255 147.121 -66.0628 -0.270338 156.864 -70.7231 -0.101015 166.317 -74.8561 0.0815467 185.024 -85.1437 0.329907 203.117 -94.8013 0.468528 220.726 -103.833 0.510147 238.008 -112.262 0.470513 255.155 -120.135 0.367582 272.408 -127.521 0.221038 290.082 -134.517 0.052105 83.6924 -44.9369 -0.755896 95.0043 -53.4015 -0.673987 105.831 -61.3164 -0.574263 116.192 -68.6771 -0.466695 126.109 -75.4863 -0.355843 135.606 -81.7527 -0.24257 144.715 -87.4902 -0.125145 153.475 -92.7179 4.8984e-05 171.601 -105.09 0.155847 189.015 -116.724 0.24248 205.837 -127.657 0.269405 222.213 -137.948 0.248162 238.321 -147.68 0.191863 254.39 -156.964 0.114897 270.717 -165.948 0.0328795 74.3638 -54.986 -0.411553 85.1665 -64.3836 -0.365634 95.4501 -73.2249 -0.311983 105.229 -81.514 -0.255302 114.521 -89.2606 -0.197671 123.349 -96.4793 -0.139366 131.74 -103.19 -0.0793953 139.729 -109.418 -0.0158404 156.876 -123.649 0.0591746 173.247 -137.085 0.10078 188.948 -149.793 0.113991 204.11 -161.861 0.104884 218.896 -173.403 0.0803461 233.512 -184.568 0.0479414 248.23 -195.551 0.0159013 64.799 -64.799 3.68061e-12 74.9679 -74.9679 9.19376e-13 84.5926 -84.5926 -1.27615e-12 93.6831 -93.6831 -3.1346e-12 102.254 -102.254 -4.82725e-12 110.323 -110.323 -5.93481e-12 117.915 -117.915 -6.98819e-12 125.062 -125.062 -7.71649e-12 140.894 -140.894 -1.08074e-11 155.923 -155.923 -1.3074e-11 170.236 -170.236 -1.46798e-11 183.944 -183.944 -1.53122e-11 197.188 -197.188 -1.53264e-11 210.15 -210.15 -1.46301e-11 223.066 -223.066 -1.35951e-11 54.986 -74.3638 0.411553 64.3836 -85.1665 0.365634 73.2249 -95.4501 0.311983 81.514 -105.229 0.255302 89.2606 -114.521 0.197671 96.4793 -123.349 0.139366 103.19 -131.74 0.0793953 109.418 -139.729 0.0158404 123.649 -156.876 -0.0591746 137.085 -173.247 -0.10078 149.793 -188.948 -0.113991 161.861 -204.11 -0.104884 173.403 -218.896 -0.0803461 184.568 -233.512 -0.0479414 195.551 -248.23 -0.0159013 44.9369 -83.6924 0.755896 53.4015 -95.0043 0.673987 61.3164 -105.831 0.574263 68.6771 -116.192 0.466695 75.4863 -126.109 0.355843 81.7527 -135.606 0.24257 87.4902 -144.715 0.125145 92.7179 -153.475 -4.8984e-05 105.09 -171.601 -0.155847 116.724 -189.015 -0.24248 127.657 -205.837 -0.269405 137.948 -222.213 -0.248162 147.68 -238.321 -0.191863 156.964 -254.39 -0.114897 165.948 -270.717 -0.0328795 34.69 -92.8232 0.956425 42.0228 -104.521 0.860546 48.8402 -115.774 0.731423 55.1236 -126.608 0.585667 60.8647 -137.047 0.431255 66.0628 -147.121 0.270338 70.7231 -156.864 0.101015 74.8561 -166.317 -0.0815467 85.1437 -185.024 -0.329907 94.8013 -203.117 -0.468528 103.833 -220.726 -0.510147 112.262 -238.008 -0.470513 120.135 -255.155 -0.367582 127.521 -272.408 -0.221038 134.517 -290.082 -0.052105 24.3189 -101.83 0.914848 30.2656 -113.775 0.844411 35.7744 -125.323 0.715315 40.802 -136.506 0.553593 45.3217 -147.353 0.372473 49.3178 -157.896 0.176719 52.7825 -168.175 -0.0347165 55.7137 -178.234 -0.267034 63.7179 -197.036 -0.626217 71.2688 -215.356 -0.82753 78.3262 -233.333 -0.885217 84.8735 -251.13 -0.817276 90.9144 -268.946 -0.644334 96.4725 -287.032 -0.3889 101.591 -305.71 -0.0749446 13.9504 -110.839 0.491445 18.1728 -122.855 0.514382 22.1054 -134.534 0.43489 25.6598 -145.912 0.294086 28.7772 -157.024 0.114019 31.4175 -167.906 -0.0954969 33.5532 -178.599 -0.332852 35.1641 -189.153 -0.602204 40.7231 -207.444 -1.09761 46.0926 -225.426 -1.37629 51.1772 -243.24 -1.45161 55.9104 -261.052 -1.34107 60.2492 -279.063 -1.06484 64.1693 -297.527 -0.64468 67.6623 -316.765 -0.103086 3.80295 -120.069 -0.53149 5.82772 -131.901 -0.295142 7.83378 -143.481 -0.240415 9.64574 -154.847 -0.298854 11.1474 -166.035 -0.43231 12.2579 -177.083 -0.621236 12.9183 -188.035 -0.858123 13.0827 -198.942 -1.14368 16.0891 -215.958 -1.80861 19.2841 -232.887 -2.1835 22.5011 -249.867 -2.27776 25.6143 -267.058 -2.1048 28.5285 -284.657 -1.68013 31.1708 -302.912 -1.01973 33.4846 -322.14 -0.138697 -5.73125 -129.913 -2.52594 -6.61415 -141.139 -1.85052 -7.01411 -152.271 -1.51046 -7.28481 -163.326 -1.38082 -7.65055 -174.33 -1.39128 -8.26298 -185.314 -1.50294 -9.23147 -196.318 -1.6962 -10.6406 -207.394 -1.96402 -10.2099 -222.158 -2.84042 -9.06259 -237.132 -3.3344 -7.45712 -252.429 -3.44783 -5.59017 -268.193 -3.18546 -3.61376 -284.607 -2.5525 -1.64764 -301.903 -1.55242 0.211376 -320.382 -0.184647 217.333 9.13222 10.46 245.12 7.58645 3.15111 272.862 4.70869 -0.800699 300.625 1.75745 -2.93182 328.523 -0.46828 -4.04834 356.718 -1.39535 -4.58602 385.435 -0.566447 -4.77193 414.967 2.4213 -4.70422 435.846 3.961 2.11584 458.239 3.944 6.34657 482.672 3.45748 8.16577 509.824 3.39496 7.72229 540.584 4.54834 5.12752 576.148 7.69084 0.442451 618.169 13.6676 -6.34233 202.692 -8.57925 8.16187 230.599 -12.7372 2.27171 258.059 -17.8868 -0.993731 285.142 -23.0891 -2.75302 311.918 -27.7063 -3.63382 338.49 -31.2667 -3.99495 365.001 -33.3965 -4.03403 391.65 -33.7802 -3.84422 418.404 -38.2322 1.67151 445.568 -43.2854 5.00403 473.655 -48.1134 6.337 503.293 -52.0439 5.85472 535.268 -54.4979 3.73458 570.607 -54.9345 0.139145 610.691 -52.7919 -4.79276 187.654 -25.8926 6.31319 215.289 -32.8558 1.62184 242.25 -40.486 -1.02969 268.559 -48.0738 -2.45681 294.234 -55.1072 -3.14314 319.312 -61.1956 -3.37857 343.868 -66.0299 -3.33053 368.018 -69.3581 -3.08369 399.123 -79.6864 1.28737 429.686 -89.7714 3.86383 460.143 -98.9943 4.82146 491.015 -106.867 4.35282 522.95 -112.995 2.65968 556.779 -117.036 -0.0531729 593.596 -118.674 -3.58277 172.317 -42.9087 4.76595 199.273 -52.7507 1.13458 225.455 -62.9663 -0.948435 250.82 -73.0052 -2.06874 275.327 -82.4479 -2.58963 298.952 -90.9652 -2.73754 321.706 -98.2959 -2.64849 343.641 -104.233 -2.39513 377.649 -120.173 0.957766 410.337 -135.138 2.89079 442.025 -148.666 3.55983 473.112 -160.415 3.14398 504.097 -170.134 1.83805 535.62 -177.643 -0.153098 568.522 -182.814 -2.61824 156.747 -59.69 3.42247 182.619 -72.3922 0.761974 207.712 -85.2097 -0.781007 231.915 -97.6994 -1.6105 255.126 -109.508 -1.98605 277.268 -120.35 -2.07448 298.297 -130.001 -1.9791 318.211 -138.286 -1.75742 353.75 -159.422 0.674794 387.373 -178.97 2.05116 419.282 -196.59 2.4977 449.747 -212.047 2.16316 479.131 -225.199 1.2123 507.912 -235.988 -0.179232 536.72 -244.424 -1.82821 140.98 -76.2752 2.21374 165.389 -91.7441 0.467592 189.077 -107.102 -0.552846 211.872 -121.98 -1.10131 233.621 -136.071 -1.34492 254.199 -149.125 -1.39354 273.518 -160.943 -1.31666 291.532 -171.373 -1.15411 327.307 -197.138 0.4286 360.764 -220.838 1.31167 391.988 -242.224 1.58352 421.141 -261.145 1.35014 448.466 -277.542 0.729951 474.309 -291.444 -0.150122 499.141 -302.964 -1.15739 125.041 -92.6883 1.08732 147.636 -110.765 0.222049 169.615 -128.535 -0.285885 190.754 -145.682 -0.558864 210.855 -161.936 -0.678736 229.755 -177.076 -0.700011 247.33 -190.924 -0.657648 263.5 -203.351 -0.572008 298.306 -233.029 0.207813 330.585 -260.317 0.639077 360.321 -285.042 0.76734 387.582 -307.123 0.647626 412.518 -326.568 0.341674 435.373 -343.477 -0.0842433 456.501 -358.043 -0.560869 108.942 -108.942 -1.02851e-12 129.411 -129.411 -2.27646e-12 149.405 -149.405 -3.29914e-12 168.652 -168.652 -3.74456e-12 186.918 -186.918 -4.21885e-12 204.007 -204.007 -4.72866e-12 219.767 -219.767 -4.99512e-12 234.091 -234.091 -5.2367e-12 266.827 -266.827 -6.21725e-12 297.013 -297.013 -6.69331e-12 324.553 -324.553 -6.83542e-12 349.433 -349.433 -6.6791e-12 371.729 -371.729 -6.08225e-12 391.607 -391.607 -5.35039e-12 409.333 -409.333 -4.17335e-12 92.6883 -125.041 -1.08732 110.765 -147.636 -0.222049 128.535 -169.615 0.285885 145.682 -190.754 0.558864 161.936 -210.855 0.678736 177.076 -229.755 0.700011 190.924 -247.33 0.657648 203.351 -263.5 0.572008 233.029 -298.306 -0.207813 260.317 -330.585 -0.639077 285.042 -360.321 -0.76734 307.123 -387.582 -0.647626 326.568 -412.518 -0.341674 343.477 -435.373 0.0842433 358.043 -456.501 0.560869 76.2752 -140.98 -2.21374 91.7441 -165.389 -0.467592 107.102 -189.077 0.552846 121.98 -211.872 1.10131 136.071 -233.621 1.34492 149.125 -254.199 1.39354 160.943 -273.518 1.31666 171.373 -291.532 1.15411 197.138 -327.307 -0.4286 220.838 -360.764 -1.31167 242.224 -391.988 -1.58352 261.145 -421.141 -1.35014 277.542 -448.466 -0.729951 291.444 -474.309 0.150122 302.964 -499.141 1.15739 59.69 -156.747 -3.42247 72.3922 -182.619 -0.761974 85.2097 -207.712 0.781007 97.6994 -231.915 1.6105 109.508 -255.126 1.98605 120.35 -277.268 2.07448 130.001 -298.297 1.9791 138.286 -318.211 1.75742 159.422 -353.75 -0.674794 178.97 -387.373 -2.05116 196.59 -419.282 -2.4977 212.047 -449.747 -2.16316 225.199 -479.131 -1.2123 235.988 -507.912 0.179232 244.424 -536.72 1.82821 42.9087 -172.317 -4.76595 52.7507 -199.273 -1.13458 62.9663 -225.455 0.948435 73.0052 -250.82 2.06874 82.4479 -275.327 2.58963 90.9652 -298.952 2.73754 98.2959 -321.706 2.64849 104.233 -343.641 2.39513 120.173 -377.649 -0.957766 135.138 -410.337 -2.89079 148.666 -442.025 -3.55983 160.415 -473.112 -3.14398 170.134 -504.097 -1.83805 177.643 -535.62 0.153098 182.814 -568.522 2.61824 25.8926 -187.654 -6.31319 32.8558 -215.289 -1.62184 40.486 -242.25 1.02969 48.0738 -268.559 2.45681 55.1072 -294.234 3.14314 61.1956 -319.312 3.37857 66.0299 -343.868 3.33053 69.3581 -368.018 3.08369 79.6864 -399.123 -1.28737 89.7714 -429.686 -3.86383 98.9943 -460.143 -4.82146 106.867 -491.015 -4.35282 112.995 -522.95 -2.65968 117.036 -556.779 0.0531729 118.674 -593.596 3.58277 8.57925 -202.692 -8.16187 12.7372 -230.599 -2.27171 17.8868 -258.059 0.993731 23.0891 -285.142 2.75302 27.7063 -311.918 3.63382 31.2667 -338.49 3.99495 33.3965 -365.001 4.03403 33.7802 -391.65 3.84422 38.2322 -418.404 -1.67151 43.2854 -445.568 -5.00403 48.1134 -473.655 -6.337 52.0439 -503.293 -5.85472 54.4979 -535.268 -3.73458 54.9345 -570.607 -0.139145 52.7919 -610.691 4.79276 -9.13222 -217.333 -10.46 -7.58645 -245.12 -3.15111 -4.70869 -272.862 0.800699 -1.75745 -300.625 2.93182 0.46828 -328.523 4.04834 1.39535 -356.718 4.58602 0.566447 -385.435 4.77193 -2.4213 -414.967 4.70422 -3.961 -435.846 -2.11584 -3.944 -458.239 -6.34657 -3.45748 -482.672 -8.16577 -3.39496 -509.824 -7.72229 -4.54834 -540.584 -5.12752 -7.69084 -576.148 -0.442451 -13.6676 -618.169 6.34233 252.452 -12.9849 13.7537 281.238 -0.933368 4.27817 310.583 3.15154 -0.330648 340.635 3.347 -2.50651 371.555 1.96092 -3.48536 403.512 0.47326 -3.92228 436.693 -0.0535079 -4.15642 471.302 1.22721 -4.33659 493.438 2.48533 3.54135 517.066 2.94508 8.47909 542.379 3.54778 10.6862 569.605 5.09018 10.3387 599.006 8.29061 7.58908 630.896 13.838 2.57418 665.642 22.4321 -4.57972 230.256 -24.9985 10.8727 261.053 -20.9373 3.17019 291.226 -22.2002 -0.778623 321.181 -26.1085 -2.74455 351.211 -31.0494 -3.67957 381.572 -35.9498 -4.10922 412.521 -40.0283 -4.31441 444.333 -42.6656 -4.42315 470.02 -46.5076 1.95223 496.876 -50.5822 5.91005 525.351 -54.1663 7.66597 555.984 -56.6434 7.42 589.448 -57.4491 5.35843 626.612 -56.0224 1.65385 668.622 -51.7537 -3.53648 209.423 -38.3754 8.50151 241.063 -41.0563 2.32803 271.449 -47.173 -0.968639 301.029 -54.9477 -2.6776 330.125 -63.2581 -3.52365 359.014 -71.3391 -3.92053 387.971 -78.6334 -4.09556 417.302 -84.7109 -4.15597 445.274 -93.3143 0.906022 474.048 -101.749 4.02139 504.24 -109.529 5.39328 536.621 -116.264 5.2207 572.195 -121.626 3.69615 612.33 -125.317 1.00256 658.958 -127.029 -2.69081 189.594 -52.7558 6.47435 221.173 -61.2193 1.67421 251.214 -71.7321 -0.969989 280.111 -83.1115 -2.38292 308.153 -94.5848 -3.10297 335.594 -105.62 -3.44577 362.696 -115.839 -3.58882 389.765 -124.968 -3.61833 418.948 -137.944 0.274833 448.559 -150.478 2.6531 479.308 -162.318 3.69333 512.112 -173.328 3.5746 548.209 -183.475 2.47419 589.357 -192.83 0.563798 638.166 -201.589 -1.9943 170.545 -67.9161 4.68081 201.318 -81.3796 1.15301 230.5 -95.8512 -0.835239 258.386 -110.552 -1.92134 285.197 -124.964 -2.48628 311.141 -138.732 -2.75806 336.446 -151.622 -2.86724 361.392 -163.486 -2.8788 390.862 -180.409 -0.0467399 420.412 -196.715 1.673 450.781 -212.383 2.42097 482.951 -227.534 2.34248 518.29 -242.456 1.58352 558.798 -257.66 0.287439 607.558 -274 -1.40758 152.135 -83.7156 3.04224 181.454 -101.507 0.722123 209.295 -119.51 -0.606122 235.83 -137.232 -1.34264 261.197 -154.342 -1.73101 285.54 -170.626 -1.91915 309.041 -185.963 -1.99289 331.939 -200.313 -1.99569 360.89 -220.72 -0.14828 389.622 -240.428 0.968642 418.846 -259.624 1.4524 449.538 -278.673 1.40489 483.086 -298.186 0.929423 521.569 -319.135 0.128427 568.278 -343.1 -0.897871 134.278 -100.068 1.49856 161.553 -121.583 0.347537 187.591 -142.693 -0.317467 212.432 -163.12 -0.689434 236.116 -182.678 -0.887119 258.717 -201.267 -0.983266 280.358 -218.858 -1.02043 301.225 -235.502 -1.02038 328.944 -258.897 -0.108638 356.209 -281.594 0.441128 383.657 -303.962 0.678628 412.188 -326.589 0.656279 443.113 -350.375 0.427494 478.424 -376.725 0.0455114 521.327 -407.919 -0.437068 116.927 -116.927 1.12419e-12 141.598 -141.598 -7.64916e-13 165.39 -165.39 -2.31448e-12 188.192 -188.192 -3.38152e-12 209.942 -209.942 -4.28146e-12 230.632 -230.632 -4.7029e-12 250.314 -250.314 -5.17097e-12 269.113 -269.113 -5.38414e-12 294.961 -294.961 -5.75895e-12 320.193 -320.193 -5.87619e-12 345.331 -345.331 -5.68079e-12 371.143 -371.143 -5.11591e-12 398.771 -398.771 -4.40892e-12 429.972 -429.972 -3.41771e-12 467.599 -467.599 -2.02375e-12 100.068 -134.278 -1.49856 121.583 -161.553 -0.347537 142.693 -187.591 0.317467 163.12 -212.432 0.689434 182.678 -236.116 0.887119 201.267 -258.717 0.983266 218.858 -280.358 1.02043 235.502 -301.225 1.02038 258.897 -328.944 0.108638 281.594 -356.209 -0.441128 303.962 -383.657 -0.678628 326.589 -412.188 -0.656279 350.375 -443.113 -0.427494 376.725 -478.424 -0.0455114 407.919 -521.327 0.437068 83.7156 -152.135 -3.04224 101.507 -181.454 -0.722123 119.51 -209.295 0.606122 137.232 -235.83 1.34264 154.342 -261.197 1.73101 170.626 -285.54 1.91915 185.963 -309.041 1.99289 200.313 -331.939 1.99569 220.72 -360.89 0.14828 240.428 -389.622 -0.968642 259.624 -418.846 -1.4524 278.673 -449.538 -1.40489 298.186 -483.086 -0.929423 319.135 -521.569 -0.128427 343.1 -568.278 0.897871 67.9161 -170.545 -4.68081 81.3796 -201.318 -1.15301 95.8512 -230.5 0.835239 110.552 -258.386 1.92134 124.964 -285.197 2.48628 138.732 -311.141 2.75806 151.622 -336.446 2.86724 163.486 -361.392 2.8788 180.409 -390.862 0.0467399 196.715 -420.412 -1.673 212.383 -450.781 -2.42097 227.534 -482.951 -2.34248 242.456 -518.29 -1.58352 257.66 -558.798 -0.287439 274 -607.558 1.40758 52.7558 -189.594 -6.47435 61.2193 -221.173 -1.67421 71.7321 -251.214 0.969989 83.1115 -280.111 2.38292 94.5848 -308.153 3.10297 105.62 -335.594 3.44577 115.839 -362.696 3.58882 124.968 -389.765 3.61833 137.944 -418.948 -0.274833 150.478 -448.559 -2.6531 162.318 -479.308 -3.69333 173.328 -512.112 -3.5746 183.475 -548.209 -2.47419 192.83 -589.357 -0.563798 201.589 -638.166 1.9943 38.3754 -209.423 -8.50151 41.0563 -241.063 -2.32803 47.173 -271.449 0.968639 54.9477 -301.029 2.6776 63.2581 -330.125 3.52365 71.3391 -359.014 3.92053 78.6334 -387.971 4.09556 84.7109 -417.302 4.15597 93.3143 -445.274 -0.906022 101.749 -474.048 -4.02139 109.529 -504.24 -5.39328 116.264 -536.621 -5.2207 121.626 -572.195 -3.69615 125.317 -612.33 -1.00256 127.029 -658.958 2.69081 24.9985 -230.256 -10.8727 20.9373 -261.053 -3.17019 22.2002 -291.226 0.778623 26.1085 -321.181 2.74455 31.0494 -351.211 3.67957 35.9498 -381.572 4.10922 40.0283 -412.521 4.31441 42.6656 -444.333 4.42315 46.5076 -470.02 -1.95223 50.5822 -496.876 -5.91005 54.1663 -525.351 -7.66597 56.6434 -555.984 -7.42 57.4491 -589.448 -5.35843 56.0224 -626.612 -1.65385 51.7537 -668.622 3.53648 12.9849 -252.452 -13.7537 0.933368 -281.238 -4.27817 -3.15154 -310.583 0.330648 -3.347 -340.635 2.50651 -1.96092 -371.555 3.48536 -0.47326 -403.512 3.92228 0.0535079 -436.693 4.15642 -1.22721 -471.302 4.33659 -2.48533 -493.438 -3.54135 -2.94508 -517.066 -8.47909 -3.54778 -542.379 -10.6862 -5.09018 -569.605 -10.3387 -8.29061 -599.006 -7.58908 -13.838 -630.896 -2.57418 -22.4321 -665.642 4.57972 266.991 -14.8746 16.8045 300.328 -2.10016 5.00537 334.048 1.96976 -0.615355 368.26 1.95439 -3.18737 403.076 0.421203 -4.26002 438.612 -1.00095 -4.63575 474.992 -1.15338 -4.7175 512.347 0.875294 -4.67037 537.709 1.82691 4.30935 564.098 2.0083 9.79377 591.631 2.54046 12.0852 620.435 4.35315 11.4635 650.654 8.25923 8.19909 682.448 15.006 2.56247 715.994 25.3128 -5.16784 243.359 -27.2594 13.3069 278.799 -23.3346 3.72406 313.365 -25.1898 -1.08911 347.451 -29.7775 -3.41398 381.321 -35.2909 -4.44772 415.188 -40.5371 -4.83687 449.258 -44.6536 -4.9174 483.748 -46.9636 -4.83358 513.131 -51.6619 2.4467 543.125 -56.4342 6.84756 574.106 -60.4072 8.66865 606.507 -62.8496 8.20364 640.847 -63.1111 5.74342 677.77 -60.5702 1.57815 718.092 -54.586 -4.00058 221.221 -41.1378 10.4178 257.483 -44.6934 2.74414 292.209 -51.9418 -1.2722 325.846 -60.8486 -3.29424 358.69 -70.1445 -4.23582 390.98 -78.9677 -4.6077 422.95 -86.6923 -4.68323 454.855 -92.8368 -4.58476 486.85 -102.858 1.20321 519.02 -112.435 4.6694 551.914 -120.952 6.0902 586.193 -127.919 5.74598 622.688 -132.918 3.9191 662.485 -135.569 0.892506 707.055 -135.484 -3.05029 200.188 -56.1216 7.94091 236.28 -66.1046 1.97911 270.549 -78.2513 -1.24107 303.383 -91.1961 -2.91375 335.043 -104.052 -3.71906 365.75 -116.209 -4.04775 395.728 -127.229 -4.11417 425.238 -136.793 -4.0176 458.632 -151.742 0.437883 491.782 -165.865 3.08465 525.335 -178.806 4.16029 560.1 -190.333 3.91119 597.134 -200.313 2.58832 637.872 -208.701 0.444726 684.361 -215.532 -2.26458 180.018 -71.9678 5.74481 215.121 -87.5203 1.36611 248.365 -104.091 -1.05453 280.023 -120.768 -2.34088 310.288 -136.941 -2.97498 339.332 -152.191 -3.23969 367.347 -166.229 -3.29319 394.575 -178.87 -3.21079 428.313 -198.293 0.0322389 461.435 -216.626 1.94622 494.621 -233.756 2.71852 528.747 -249.712 2.54622 564.998 -264.672 1.63164 605.037 -278.985 0.179936 651.316 -293.241 -1.60044 160.556 -88.5232 3.7354 193.964 -108.91 0.857044 225.647 -129.44 -0.759748 255.749 -149.522 -1.63238 284.368 -168.749 -2.06936 311.615 -186.852 -2.25448 337.633 -203.663 -2.29196 362.627 -219.105 -2.2324 395.784 -242.497 -0.116144 428.02 -264.639 1.12687 459.989 -285.639 1.62577 492.566 -305.775 1.51757 526.962 -325.528 0.94368 564.917 -345.664 0.0480647 609.071 -367.387 -1.02186 141.71 -105.694 1.84046 172.776 -130.253 0.412902 202.393 -154.282 -0.396476 230.552 -177.421 -0.837282 257.254 -199.427 -1.06003 282.531 -220.147 -1.15518 306.468 -239.513 -1.17447 329.218 -257.538 -1.14334 360.972 -284.344 -0.098702 391.582 -309.84 0.513091 421.628 -334.325 0.757832 451.914 -358.297 0.705694 483.581 -382.514 0.429279 518.301 -408.129 0.00271801 558.65 -436.939 -0.497705 123.428 -123.428 2.69919e-12 151.542 -151.542 2.69812e-13 178.602 -178.602 -1.47193e-12 204.438 -204.438 -2.92077e-12 228.937 -228.937 -3.77298e-12 252.044 -252.044 -4.5155e-12 273.775 -273.775 -4.95248e-12 294.22 -294.22 -5.20117e-12 323.833 -323.833 -5.42144e-12 352.172 -352.172 -5.30065e-12 379.695 -379.695 -4.9809e-12 407.079 -407.079 -4.31299e-12 435.308 -435.308 -3.68772e-12 465.849 -465.849 -2.78888e-12 500.982 -500.982 -1.63219e-12 105.694 -141.71 -1.84046 130.253 -172.776 -0.412902 154.282 -202.393 0.396476 177.421 -230.552 0.837282 199.427 -257.254 1.06003 220.147 -282.531 1.15518 239.513 -306.468 1.17447 257.538 -329.218 1.14334 284.344 -360.972 0.098702 309.84 -391.582 -0.513091 334.325 -421.628 -0.757832 358.297 -451.914 -0.705694 382.514 -483.581 -0.429279 408.129 -518.301 -0.00271801 436.939 -558.65 0.497705 88.5232 -160.556 -3.7354 108.91 -193.964 -0.857044 129.44 -225.647 0.759748 149.522 -255.749 1.63238 168.749 -284.368 2.06936 186.852 -311.615 2.25448 203.663 -337.633 2.29196 219.105 -362.627 2.2324 242.497 -395.784 0.116144 264.639 -428.02 -1.12687 285.639 -459.989 -1.62577 305.775 -492.566 -1.51757 325.528 -526.962 -0.94368 345.664 -564.917 -0.0480647 367.387 -609.071 1.02186 71.9678 -180.018 -5.74481 87.5203 -215.121 -1.36611 104.091 -248.365 1.05453 120.768 -280.023 2.34088 136.941 -310.288 2.97498 152.191 -339.332 3.23969 166.229 -367.347 3.29319 178.87 -394.575 3.21079 198.293 -428.313 -0.0322389 216.626 -461.435 -1.94622 233.756 -494.621 -2.71852 249.712 -528.747 -2.54622 264.672 -564.998 -1.63164 278.985 -605.037 -0.179936 293.241 -651.316 1.60044 56.1216 -200.188 -7.94091 66.1046 -236.28 -1.97911 78.2513 -270.549 1.24107 91.1961 -303.383 2.91375 104.052 -335.043 3.71906 116.209 -365.75 4.04775 127.229 -395.728 4.11417 136.793 -425.238 4.0176 151.742 -458.632 -0.437883 165.865 -491.782 -3.08465 178.806 -525.335 -4.16029 190.333 -560.1 -3.91119 200.313 -597.134 -2.58832 208.701 -637.872 -0.444726 215.532 -684.361 2.26458 41.1378 -221.221 -10.4178 44.6934 -257.483 -2.74414 51.9418 -292.209 1.2722 60.8486 -325.846 3.29424 70.1445 -358.69 4.23582 78.9677 -390.98 4.6077 86.6923 -422.95 4.68323 92.8368 -454.855 4.58476 102.858 -486.85 -1.20321 112.435 -519.02 -4.6694 120.952 -551.914 -6.0902 127.919 -586.193 -5.74598 132.918 -622.688 -3.9191 135.569 -662.485 -0.892506 135.484 -707.055 3.05029 27.2594 -243.359 -13.3069 23.3346 -278.799 -3.72406 25.1898 -313.365 1.08911 29.7775 -347.451 3.41398 35.2909 -381.321 4.44772 40.5371 -415.188 4.83687 44.6536 -449.258 4.9174 46.9636 -483.748 4.83358 51.6619 -513.131 -2.4467 56.4342 -543.125 -6.84756 60.4072 -574.106 -8.66865 62.8496 -606.507 -8.20364 63.1111 -640.847 -5.74342 60.5702 -677.77 -1.57815 54.586 -718.092 4.00058 14.8746 -266.991 -16.8045 2.10016 -300.328 -5.00537 -1.96976 -334.048 0.615355 -1.95439 -368.26 3.18737 -0.421203 -403.076 4.26002 1.00095 -438.612 4.63575 1.15338 -474.992 4.7175 -0.875294 -512.347 4.67037 -1.82691 -537.709 -4.30935 -2.0083 -564.098 -9.79377 -2.54046 -591.631 -12.0852 -4.35315 -620.435 -11.4635 -8.25923 -650.654 -8.19909 -15.006 -682.448 -2.56247 -25.3128 -715.994 5.16784 279.82 -15.0549 19.7899 317.163 -1.48436 5.64235 354.708 2.59084 -0.946677 392.513 2.35892 -3.86259 430.639 0.646466 -4.98216 469.145 -0.776598 -5.25742 508.095 -0.666168 -5.15459 547.554 1.94115 -4.8546 575.341 2.51368 5.14762 603.665 2.32508 11.1154 632.577 2.6549 13.451 662.131 4.54191 12.5436 692.388 8.