<?xml version="1.0"?> 
<VTKFile type="StructuredGrid" version="0.1"> 
<StructuredGrid WholeExtent="0 14 0 14 0 29"> 
<Piece Extent="0 14 0 14 0 29"> 
<PointData>
<DataArray type="Float32" Name="hfield" format="ascii" NumberOfComponents="3"> 
-5.76876 98.9575 -1.30934 1.11815 100.024 -1.03294 5.43613 101.295 -0.819438 8.00328 102.778 -0.64955 9.32537 104.487 -0.511153 9.72834 106.437 -0.396233 9.4286 108.647 -0.299283 8.57235 111.138 -0.216395 7.7294 112.965 -0.0873992 6.76235 115.099 0.0252572 5.67984 117.572 0.124494 4.48456 120.421 0.212574 3.17408 123.696 0.291279 1.74112 127.453 0.36203 0.173417 131.765 0.425975 -11.7198 91.5959 -0.988403 -7.90237 94.0201 -0.788828 -5.67695 96.425 -0.630359 -4.57011 98.8855 -0.501799 -4.27423 101.459 -0.395673 -4.58355 104.193 -0.306807 -5.35771 107.133 -0.231498 -6.50017 110.321 -0.167034 -7.32061 112.528 -0.0672646 -8.21584 115.068 0.0193678 -9.18124 117.983 0.0950616 -10.2165 121.325 0.161553 -11.325 125.155 0.22023 -12.5142 129.553 0.272219 -13.7955 134.616 0.318439 -18.4139 84.9773 -0.748148 -16.761 88.1484 -0.601055 -16.099 91.2052 -0.482221 -16.1451 94.2403 -0.38464 -16.7108 97.3261 -0.303436 -17.668 100.524 -0.235116 -18.9291 103.888 -0.177106 -20.4349 107.474 -0.127472 -21.3586 109.872 -0.0511725 -22.343 112.611 0.0146801 -23.3904 115.741 0.0717535 -24.5069 119.323 0.121384 -25.7024 123.431 0.164656 -26.9914 128.158 0.202456 -28.3933 133.622 0.235518 -25.4231 78.6738 -0.556752 -25.3511 82.2263 -0.448985 -25.8788 85.626 -0.36096 -26.8394 88.9654 -0.288127 -28.1213 92.3188 -0.227225 -29.6501 95.7502 -0.175857 -31.3768 99.3188 -0.132218 -33.2709 103.082 -0.0949285 -34.3658 105.531 -0.0379945 -35.5318 108.315 0.0108624 -36.7797 111.487 0.0528911 -38.1246 115.115 0.0891036 -39.5869 119.28 0.120329 -41.193 124.086 0.147251 -42.9777 129.664 0.170442 -32.5144 72.4524 -0.396068 -33.6201 76.1443 -0.320078 -35.0616 79.6753 -0.257578 -36.7479 83.1293 -0.205622 -38.6207 86.5758 -0.162055 -40.6441 90.0764 -0.125262 -42.7983 93.6889 -0.094013 -45.076 97.471 -0.06735 -46.3749 99.8713 -0.0268869 -47.7711 102.589 0.00766434 -49.2848 105.678 0.0371991 -50.9414 109.207 0.0624491 -52.7737 113.262 0.0840175 -54.8239 117.949 0.102406 -57.1464 123.409 0.118037 -39.5546 66.1799 -0.25468 -41.5448 69.8327 -0.206049 -43.6889 73.3378 -0.165882 -45.9489 76.7655 -0.132399 -48.3049 80.1762 -0.104277 -50.7497 83.6251 -0.0805171 -53.2864 87.1653 -0.0603453 -55.9263 90.8507 -0.0431568 -57.4411 93.1355 -0.0171946 -59.0889 95.7094 0.00489058 -60.899 98.6263 0.0236787 -62.9077 101.953 0.0396462 -65.161 105.772 0.0531881 -67.7178 110.191 0.0646344 -70.6549 115.35 0.074263 -46.4675 59.7801 -0.124687 -49.1189 63.2447 -0.100932 -51.7983 66.5947 -0.0812672 -54.5064 69.8829 -0.0648509 -57.2518 73.1566 -0.0510529 -60.0497 76.4614 -0.0393925 -62.9208 79.8426 -0.0294969 -65.8915 83.3476 -0.0210723 -67.6215 85.4724 -0.00838521 -69.5251 87.8515 0.00238165 -71.6397 90.535 0.0115137 -74.0118 93.5852 0.0192462 -76.7001 97.0804 0.0257745 -79.7801 101.121 0.0312626 -83.3503 105.84 0.0358487 -53.2134 53.2134 -3.02239e-09 -56.3475 56.3475 -3.47076e-09 -59.4236 59.4236 -3.8121e-09 -62.4715 62.4715 -4.06915e-09 -65.5219 65.5219 -4.25882e-09 -68.607 68.607 -4.39442e-09 -71.7615 71.7615 -4.48554e-09 -75.0236 75.0236 -4.54024e-09 -76.9599 76.9599 -5.66852e-09 -79.111 79.111 -6.59562e-09 -81.5216 81.5216 -7.3523e-09 -84.247 84.247 -7.96383e-09 -87.3572 87.3572 -8.45084e-09 -90.9418 90.9418 -8.83116e-09 -95.1185 95.1185 -9.1195e-09 -59.7801 46.4675 0.124687 -63.2447 49.1189 0.100932 -66.5947 51.7983 0.0812672 -69.8829 54.5064 0.0648509 -73.1566 57.2518 0.0510529 -76.4614 60.0497 0.0393925 -79.8426 62.9208 0.0294969 -83.3476 65.8915 0.0210723 -85.4724 67.6215 0.0083852 -87.8515 69.5251 -0.00238167 -90.535 71.6397 -0.0115137 -93.5852 74.0118 -0.0192462 -97.0804 76.7001 -0.0257745 -101.121 79.7801 -0.0312626 -105.84 83.3503 -0.0358487 -66.1799 39.5546 0.25468 -69.8327 41.5448 0.206049 -73.3378 43.6889 0.165882 -76.7655 45.9489 0.132399 -80.1762 48.3049 0.104277 -83.6251 50.7497 0.0805171 -87.1653 53.2864 0.0603453 -90.8507 55.9263 0.0431568 -93.1355 57.4411 0.0171946 -95.7094 59.0889 -0.00489059 -98.6263 60.899 -0.0236787 -101.953 62.9077 -0.0396462 -105.772 65.161 -0.0531881 -110.191 67.7178 -0.0646344 -115.35 70.6549 -0.074263 -72.4524 32.5144 0.396068 -76.1443 33.6201 0.320078 -79.6753 35.0616 0.257578 -83.1293 36.7479 0.205622 -86.5758 38.6207 0.162055 -90.0764 40.6441 0.125262 -93.6889 42.7983 0.094013 -97.471 45.076 0.06735 -99.8713 46.3749 0.0268869 -102.589 47.7711 -0.00766435 -105.678 49.2848 -0.0371992 -109.207 50.9414 -0.0624491 -113.262 52.7737 -0.0840175 -117.949 54.8239 -0.102406 -123.409 57.1464 -0.118037 -78.6738 25.4231 0.556752 -82.2263 25.3511 0.448985 -85.626 25.8788 0.36096 -88.9654 26.8394 0.288127 -92.3188 28.1213 0.227225 -95.7502 29.6501 0.175857 -99.3188 31.3768 0.132218 -103.082 33.2709 0.0949285 -105.531 34.3658 0.0379945 -108.315 35.5318 -0.0108624 -111.487 36.7797 -0.0528911 -115.115 38.1246 -0.0891036 -119.28 39.5869 -0.120329 -124.086 41.193 -0.147251 -129.664 42.9777 -0.170442 -84.9773 18.4139 0.748148 -88.1484 16.761 0.601055 -91.2052 16.099 0.482221 -94.2403 16.1451 0.38464 -97.3261 16.7108 0.303436 -100.524 17.668 0.235116 -103.888 18.9291 0.177106 -107.474 20.4349 0.127472 -109.872 21.3586 0.0511725 -112.611 22.343 -0.0146801 -115.741 23.3904 -0.0717535 -119.323 24.5069 -0.121384 -123.431 25.7024 -0.164656 -128.158 26.9914 -0.202456 -133.622 28.3933 -0.235518 -91.5959 11.7198 0.988403 -94.0201 7.90237 0.788828 -96.425 5.67695 0.630359 -98.8855 4.57011 0.501799 -101.459 4.27423 0.395673 -104.193 4.58355 0.306807 -107.133 5.35771 0.231498 -110.321 6.50017 0.167034 -112.528 7.32061 0.0672646 -115.068 8.21584 -0.0193678 -117.983 9.18124 -0.0950616 -121.325 10.2165 -0.161553 -125.155 11.325 -0.22023 -129.553 12.5142 -0.272219 -134.616 13.7955 -0.318439 -98.9575 5.76876 1.30934 -100.024 -1.11815 1.03294 -101.295 -5.43613 0.819438 -102.778 -8.00328 0.64955 -104.487 -9.32537 0.511153 -106.437 -9.72834 0.396233 -108.647 -9.4286 0.299283 -111.138 -8.57235 0.216395 -112.965 -7.7294 0.0873992 -115.099 -6.76235 -0.0252572 -117.572 -5.67984 -0.124494 -120.421 -4.48456 -0.212574 -123.696 -3.17408 -0.291279 -127.453 -1.74112 -0.36203 -131.765 -0.173417 -0.425975 -13.7688 495.838 -4.33948 10.7982 515.694 -3.15088 24.7943 536.238 -2.52688 31.8954 557.584 -2.17964 34.3677 579.859 -1.93739 33.675 603.199 -1.69318 30.7999 627.757 -1.37809 26.422 653.705 -0.946127 27.7308 658.24 -1.70769 26.959 664.147 -2.15822 24.4285 671.527 -2.29481 20.3648 680.501 -2.11074 14.9197 691.22 -1.59495 8.18567 703.869 -0.73133 0.204469 718.672 0.50225 -44.5007 457.703 -1.77743 -35.1443 483.792 -1.17757 -31.8677 509.385 -0.910891 -32.6101 534.887 -0.79557 -36.0373 560.618 -0.72016 -41.2554 586.856 -0.614978 -47.6494 613.858 -0.435979 -54.7861 641.875 -0.155231 -54.3333 649.597 -0.810941 -55.2954 658.56 -1.22126 -57.4396 668.925 -1.38979 -60.5989 680.877 -1.31769 -64.6579 694.63 -1.00323 -69.5432 710.434 -0.441292 -75.2176 728.591 0.377293 -78.8066 423.142 -0.376625 -80.4336 452.587 -0.08952 -85.3976 480.976 -0.00777804 -92.5208 508.782 -0.00930383 -101.023 536.386 -0.0185733 -110.375 564.115 0.0111291 -120.215 592.268 0.108235 -130.291 621.132 0.289367 -131.2 630.763 -0.255143 -133.086 641.512 -0.609651 -135.8 653.581 -0.781253 -139.239 667.19 -0.775502 -143.338 682.594 -0.596099 -148.063 700.091 -0.244556 -153.412 720.039 0.280229 -114.676 390.144 0.313036 -124.523 421.179 0.433951 -135.946 450.878 0.426153 -148.292 479.706 0.373415 -161.134 508.046 0.327532 -174.19 536.231 0.319944 -187.279 564.57 0.368871 -200.287 593.36 0.48383 -202.789 603.92 0.0511429 -206.003 615.481 -0.238711 -209.854 628.258 -0.393968 -214.304 642.493 -0.421926 -219.345 658.462 -0.328739 -225 676.491 -0.119197 -231.32 696.973 0.203516 -151.001 357.602 0.552207 -167.13 389.023 0.590011 -183.671 418.981 0.548165 -200.306 447.9 0.483091 -216.844 476.136 0.429505 -233.178 504.008 0.408037 -249.26 531.815 0.43003 -265.085 559.845 0.500626 -269.241 570.598 0.178426 -273.967 582.233 -0.0418294 -279.256 594.967 -0.167757 -285.133 609.047 -0.206428 -291.651 624.752 -0.164232 -298.893 642.418 -0.0467583 -306.978 662.45 0.141335 -187.139 324.873 0.506793 -208.119 355.769 0.50984 -228.73 385.182 0.466758 -248.884 413.474 0.412568 -268.554 440.963 0.368697 -287.763 467.935 0.347641 -306.563 494.666 0.355945 -325.034 521.426 0.396152 -330.796 531.822 0.182634 -337.073 542.985 0.034674 -343.922 555.124 -0.0534703 -351.425 568.471 -0.0872481 -359.693 583.297 -0.071734 -368.872 599.929 -0.0115674 -379.155 618.764 0.0891007 -222.723 291.59 0.292746 -247.442 321.184 0.288143 -271.275 349.374 0.262386 -294.294 376.446 0.232286 -316.598 402.661 0.208081 -338.303 428.266 0.195667 -359.54 453.498 0.198028 -380.457 478.6 0.216181 -387.703 488.229 0.109837 -395.476 498.524 0.0355636 -403.883 509.666 -0.00970593 -413.056 521.868 -0.0289113 -423.162 535.376 -0.0248279 -434.409 550.491 -4.2427e-05 -447.055 567.581 0.0430637 -257.56 257.56 -2.13665e-09 -285.11 285.11 -2.99766e-09 -311.445 311.445 -3.65745e-09 -336.758 336.758 -4.15935e-09 -361.239 361.239 -4.53526e-09 -385.077 385.077 -4.81008e-09 -408.464 408.464 -5.00275e-09 -431.601 431.601 -5.12814e-09 -440.156 440.156 -5.75733e-09 -449.292 449.292 -6.23537e-09 -459.159 459.159 -6.58425e-09 -469.933 469.933 -6.82232e-09 -481.826 481.826 -6.96385e-09 -495.099 495.099 -7.02114e-09 -510.071 510.071 -7.0039e-09 -291.59 222.723 -0.292746 -321.184 247.442 -0.288143 -349.374 271.275 -0.262386 -376.446 294.294 -0.232286 -402.661 316.598 -0.208081 -428.266 338.303 -0.195667 -453.498 359.54 -0.198028 -478.6 380.457 -0.216181 -488.229 387.703 -0.109837 -498.524 395.476 -0.0355636 -509.666 403.883 0.00970592 -521.868 413.056 0.0289113 -535.376 423.162 0.0248279 -550.491 434.409 4.2414e-05 -567.581 447.055 -0.0430637 -324.873 187.139 -0.506793 -355.769 208.119 -0.50984 -385.182 228.73 -0.466758 -413.474 248.884 -0.412568 -440.963 268.554 -0.368697 -467.935 287.763 -0.347641 -494.666 306.563 -0.355945 -521.426 325.034 -0.396152 -531.822 330.796 -0.182634 -542.985 337.073 -0.034674 -555.124 343.922 0.0534703 -568.471 351.425 0.0872481 -583.297 359.693 0.071734 -599.929 368.872 0.0115674 -618.764 379.155 -0.0891007 -357.602 151.001 -0.552207 -389.023 167.13 -0.590011 -418.981 183.671 -0.548165 -447.9 200.306 -0.483091 -476.136 216.844 -0.429505 -504.008 233.178 -0.408037 -531.815 249.26 -0.43003 -559.845 265.085 -0.500626 -570.598 269.241 -0.178427 -582.233 273.967 0.0418294 -594.967 279.256 0.167757 -609.047 285.133 0.206428 -624.752 291.651 0.164232 -642.418 298.893 0.0467583 -662.45 306.978 -0.141335 -390.144 114.676 -0.313036 -421.179 124.523 -0.433951 -450.878 135.946 -0.426153 -479.706 148.292 -0.373415 -508.046 161.134 -0.327532 -536.231 174.19 -0.319944 -564.57 187.279 -0.368871 -593.36 200.287 -0.48383 -603.92 202.789 -0.051143 -615.481 206.003 0.238711 -628.258 209.854 0.393968 -642.493 214.304 0.421926 -658.462 219.345 0.328739 -676.491 225 0.119197 -696.973 231.32 -0.203516 -423.142 78.8066 0.376625 -452.587 80.4336 0.08952 -480.976 85.3976 0.00777803 -508.782 92.5208 0.00930383 -536.386 101.023 0.0185733 -564.115 110.375 -0.0111291 -592.268 120.215 -0.108235 -621.132 130.291 -0.289367 -630.763 131.2 0.255143 -641.512 133.086 0.609651 -653.581 135.8 0.781253 -667.19 139.239 0.775502 -682.594 143.338 0.596099 -700.091 148.063 0.244556 -720.039 153.412 -0.280229 -457.703 44.5007 1.77743 -483.792 35.1443 1.17757 -509.385 31.8677 0.910891 -534.887 32.6101 0.79557 -560.618 36.0373 0.72016 -586.856 41.2554 0.614978 -613.858 47.6494 0.435979 -641.875 54.7861 0.155231 -649.597 54.3333 0.810941 -658.56 55.2954 1.22126 -668.925 57.4396 1.38979 -680.877 60.5989 1.31769 -694.63 64.6579 1.00323 -710.434 69.5432 0.441292 -728.591 75.2176 -0.377293 -495.838 13.7688 4.33948 -515.694 -10.7982 3.15088 -536.238 -24.7943 2.52688 -557.584 -31.8954 2.17964 -579.859 -34.3677 1.93739 -603.199 -33.675 1.69318 -627.757 -30.7999 1.37809 -653.705 -26.422 0.946127 -658.24 -27.7308 1.70769 -664.147 -26.959 2.15822 -671.527 -24.4285 2.29481 -680.501 -20.3648 2.11074 -691.22 -14.9197 1.59495 -703.869 -8.18567 0.73133 -718.672 -0.204469 -0.50225 -25.9165 884.165 -8.96254 17.9997 927.104 -5.61445 40.4596 970.96 -4.06883 49.6292 1015.99 -3.27044 50.4104 1062.48 -2.60878 45.9314 1110.75 -1.71304 38.2919 1161.18 -0.349339 28.9656 1214.18 1.63493 38.8402 1200.12 -2.7581 43.1592 1188.04 -5.51439 42.759 1178.11 -6.66656 38.2027 1170.51 -6.20888 29.8405 1165.47 -4.09753 17.8447 1163.27 -0.247624 2.22805 1164.25 5.47291 -79.5975 815.239 -4.44467 -62.1199 869.761 -2.25392 -57.8777 922.704 -1.32466 -61.9733 974.873 -0.909062 -71.2878 1026.89 -0.556808 -83.7384 1079.27 0.0100828 -97.878 1132.52 0.964826 -112.665 1187.1 2.41471 -104.579 1181.11 -1.14157 -100.368 1176.43 -3.39265 -99.3914 1173.34 -4.38577 -101.194 1172.14 -4.14561 -105.463 1173.13 -2.67454 -112.005 1176.67 0.0487256 -120.73 1183.15 4.07206 -138.611 751.646 -1.82284 -141.3 812.768 -0.343346 -151.915 871.121 0.224811 -167.429 927.599 0.427294 -185.833 982.877 0.601487 -205.742 1037.51 0.957354 -226.175 1092.01 1.62364 -246.416 1146.83 2.67569 -240.713 1146.42 -0.14788 -237.582 1146.74 -1.94887 -236.565 1148.1 -2.77966 -237.328 1150.82 -2.67981 -239.638 1155.24 -1.67615 -243.342 1161.7 0.21779 -248.355 1170.63 3.0032 -200.234 690.662 -0.396444 -218.797 755.018 0.611424 -241.697 816.095 0.960035 -267.045 874.691 1.04684 -293.553 931.422 1.12195 -320.317 986.796 1.34158 -346.694 1041.26 1.79997 -372.217 1095.24 2.54924 -369.117 1098.48 0.378037 -367.58 1101.94 -1.01577 -367.306 1105.95 -1.68228 -368.081 1110.82 -1.66458 -369.761 1116.86 -0.998798 -372.256 1124.42 0.286312 -375.528 1133.85 2.16998 -262.908 630.729 0.257019 -294.187 695.825 0.92849 -327.294 757.529 1.1388 -361.075 816.477 1.16719 -394.729 873.169 1.19141 -427.697 928.024 1.32266 -459.584 981.413 1.627 -490.116 1033.69 2.13918 -489.582 1039.03 0.560097 -489.838 1044.22 -0.458822 -490.718 1049.56 -0.959752 -492.117 1055.33 -0.981285 -493.973 1061.8 -0.558306 -496.268 1069.29 0.278229 -499.02 1078.1 1.50163 -325.712 570.926 0.415193 -367.229 634.745 0.827909 -408.786 695.34 0.946928 -449.724 753.152 0.95053 -489.593 808.539 0.953055 -528.085 861.809 1.02602 -564.999 913.246 1.21145 -600.209 963.124 1.53055 -602.018 969.345 0.500677 -604.045 975.188 -0.166361 -606.237 980.895 -0.500817 -608.579 986.705 -0.531251 -611.087 992.859 -0.284392 -613.807 999.611 0.215029 -616.814 1007.24 0.944455 -388.104 510.711 0.277101 -437.805 571.492 0.473897 -486.253 629.45 0.527606 -533.155 684.815 0.525197 -578.322 737.785 0.522673 -621.642 788.546 0.555057 -663.063 837.281 0.642776 -702.582 884.182 0.795873 -706.369 890.317 0.287666 -709.981 895.985 -0.0422506 -713.459 901.374 -0.209632 -716.865 906.669 -0.229579 -720.282 912.065 -0.116449 -723.815 917.768 0.116236 -727.593 924.005 0.455868 -449.801 449.801 -2.0414e-09 -505.88 505.88 -2.92985e-09 -559.781 559.781 -3.61368e-09 -611.493 611.493 -4.13585e-09 -661.036 661.036 -4.52762e-09 -708.458 708.458 -4.81348e-09 -753.834 753.834 -5.01175e-09 -797.263 797.263 -5.13719e-09 -802.536 802.536 -5.50241e-09 -807.408 807.408 -5.75041e-09 -811.999 811.999 -5.89618e-09 -816.437 816.437 -5.95204e-09 -820.865 820.865 -5.92792e-09 -825.439 825.439 -5.83205e-09 -830.338 830.338 -5.67152e-09 -510.711 388.104 -0.277101 -571.492 437.805 -0.473897 -629.45 486.253 -0.527606 -684.815 533.155 -0.525197 -737.785 578.322 -0.522673 -788.546 621.642 -0.555057 -837.281 663.063 -0.642776 -884.182 702.582 -0.795873 -890.317 706.369 -0.287666 -895.985 709.981 0.0422506 -901.374 713.459 0.209632 -906.669 716.865 0.229579 -912.065 720.282 0.116449 -917.768 723.815 -0.116236 -924.005 727.593 -0.455868 -570.926 325.712 -0.415193 -634.745 367.229 -0.827909 -695.34 408.786 -0.946928 -753.152 449.724 -0.95053 -808.539 489.593 -0.953055 -861.809 528.085 -1.02602 -913.246 564.999 -1.21145 -963.124 600.209 -1.53055 -969.345 602.018 -0.500677 -975.188 604.045 0.166361 -980.895 606.237 0.500817 -986.705 608.579 0.531251 -992.859 611.087 0.284392 -999.611 613.807 -0.215029 -1007.24 616.814 -0.944455 -630.729 262.908 -0.257019 -695.825 294.187 -0.92849 -757.529 327.294 -1.1388 -816.477 361.075 -1.16719 -873.169 394.729 -1.19141 -928.024 427.697 -1.32266 -981.413 459.584 -1.627 -1033.69 490.116 -2.13918 -1039.03 489.582 -0.560097 -1044.22 489.838 0.458822 -1049.56 490.718 0.959752 -1055.33 492.117 0.981284 -1061.8 493.973 0.558306 -1069.29 496.268 -0.278229 -1078.1 499.02 -1.50163 -690.662 200.234 0.396444 -755.018 218.797 -0.611424 -816.095 241.697 -0.960035 -874.691 267.045 -1.04684 -931.422 293.553 -1.12195 -986.796 320.317 -1.34158 -1041.26 346.694 -1.79997 -1095.24 372.217 -2.54924 -1098.48 369.117 -0.378037 -1101.94 367.58 1.01577 -1105.95 367.306 1.68228 -1110.82 368.081 1.66458 -1116.86 369.761 0.998798 -1124.42 372.256 -0.286312 -1133.85 375.528 -2.16998 -751.646 138.611 1.82284 -812.768 141.3 0.343346 -871.121 151.915 -0.224811 -927.599 167.429 -0.427294 -982.877 185.833 -0.601487 -1037.51 205.742 -0.957354 -1092.01 226.175 -1.62364 -1146.83 246.416 -2.67569 -1146.42 240.713 0.14788 -1146.74 237.582 1.94887 -1148.1 236.565 2.77966 -1150.82 237.328 2.67981 -1155.24 239.638 1.67615 -1161.7 243.342 -0.21779 -1170.63 248.355 -3.0032 -815.239 79.5975 4.44467 -869.761 62.1199 2.25392 -922.704 57.8777 1.32466 -974.873 61.9733 0.909062 -1026.89 71.2878 0.556808 -1079.27 83.7384 -0.0100828 -1132.52 97.878 -0.964826 -1187.1 112.665 -2.41471 -1181.11 104.579 1.14157 -1176.43 100.368 3.39265 -1173.34 99.3914 4.38577 -1172.14 101.194 4.14561 -1173.13 105.463 2.67454 -1176.67 112.005 -0.0487256 -1183.15 120.73 -4.07206 -884.165 25.9165 8.96254 -927.104 -17.9997 5.61445 -970.96 -40.4596 4.06883 -1015.99 -49.6292 3.27044 -1062.48 -50.4104 2.60878 -1110.75 -45.9314 1.71304 -1161.18 -38.2919 0.349339 -1214.18 -28.9656 -1.63493 -1200.12 -38.8402 2.7581 -1188.04 -43.1592 5.51439 -1178.11 -42.759 6.66656 -1170.51 -38.2027 6.20888 -1165.47 -29.8405 4.09753 -1163.27 -17.8447 0.247624 -1164.25 -2.22805 -5.47291 -52.2193 1139.69 -8.56284 11.908 1194.58 -4.9952 45.4965 1250.66 -3.80349 60.2893 1308.1 -3.4428 63.2648 1367.06 -3.02837 58.8489 1427.73 -2.0278 50.0052 1490.29 -0.109725 38.815 1554.95 2.93637 53.3556 1530.47 -4.24602 59.753 1507.08 -8.64731 59.2422 1484.72 -10.3622 52.6956 1463.37 -9.43143 40.7187 1443 -5.8501 23.7131 1423.58 0.426638 1.91992 1405.08 9.48132 -114.459 1046.58 -4.1348 -87.3708 1117.26 -1.63657 -79.0865 1185.68 -0.877661 -82.5381 1252.8 -0.727618 -93.2635 1319.3 -0.514239 -108.294 1385.67 0.171818 -125.563 1452.3 1.58049 -143.575 1519.54 3.86052 -130.97 1505.92 -1.90705 -123.999 1492.65 -5.47006 -121.688 1479.87 -6.93579 -123.31 1467.7 -6.37954 -128.332 1456.26 -3.84986 -136.36 1445.65 0.628178 -147.114 1435.97 7.05134 -185.055 961.822 -1.57853 -185.993 1041.51 0.225787 -198.153 1117.28 0.732588 -217.151 1190.26 0.782487 -240.092 1261.23 0.887918 -264.983 1330.77 1.36267 -290.397 1399.32 2.39448 -315.281 1467.26 4.0878 -305.389 1461.2 -0.461714 -299.176 1454.84 -3.29189 -295.909 1448.43 -4.50953 -295.034 1442.18 -4.20306 -296.127 1436.26 -2.44544 -298.868 1430.87 0.704005 -303.014 1426.16 5.19867 -260.1 881.514 -0.206822 -282.908 965.656 1.09927 -311.816 1045.16 1.44558 -344.077 1121.06 1.45116 -377.818 1194.08 1.49967 -411.714 1264.75 1.82655 -444.803 1333.48 2.56994 -476.368 1400.63 3.80192 -469.483 1399.55 0.321501 -464.744 1397.67 -1.85628 -461.639 1395.27 -2.82768 -459.777 1392.59 -2.67878 -458.862 1389.83 -1.48692 -458.668 1387.22 0.67845 -459.028 1384.95 3.75535 -337.354 803.415 0.396937 -377.52 888.655 1.31193 -420.219 969.098 1.54539 -463.755 1045.57 1.53493 -506.948 1118.64 1.55475 -548.948 1188.76 1.77316 -589.135 1256.27 2.28729 -627.046 1321.45 3.14498 -623.129 1323.34 0.623562 -620.163 1324.1 -0.961502 -617.827 1323.98 -1.68844 -615.881 1323.21 -1.63012 -614.148 1322.02 -0.854608 -612.503 1320.61 0.574546 -610.865 1319.21 2.59822 -415.484 726.191 0.507684 -469.503 809.833 1.09143 -523.518 888.903 1.23694 -576.55 963.966 1.22457 -627.907 1035.43 1.2312 -677.09 1103.59 1.36535 -723.733 1168.7 1.68886 -767.572 1230.96 2.23082 -766.346 1234.26 0.590833 -765.161 1236.24 -0.443626 -763.855 1237.15 -0.927497 -762.316 1237.17 -0.913088 -760.478 1236.51 -0.450221 -758.308 1235.37 0.413736 -755.806 1233.94 1.63394 -493.706 649.06 0.323161 -558.703 728.743 0.60793 -621.875 804.408 0.678058 -682.762 876.33 0.670532 -741.037 944.706 0.672106 -796.465 1009.69 0.735979 -848.879 1071.4 0.892225 -898.169 1129.98 1.15457 -899.178 1133.43 0.346605 -899.565 1135.6 -0.164095 -899.298 1136.65 -0.405809 -898.376 1136.72 -0.405766 -896.824 1135.99 -0.190147 -894.689 1134.6 0.215957 -892.043 1132.74 0.788606 -571.608 571.608 -2.11634e-09 -645.092 645.092 -2.90619e-09 -715.452 715.452 -3.51041e-09 -782.631 782.631 -3.96778e-09 -846.587 846.587 -4.30559e-09 -907.297 907.297 -4.54532e-09 -964.755 964.755 -4.70285e-09 -1018.98 1018.98 -4.79103e-09 -1021.6 1021.6 -5.14923e-09 -1023.17 1023.17 -5.39874e-09 -1023.75 1023.75 -5.55608e-09 -1023.43 1023.43 -5.63494e-09 -1022.32 1022.32 -5.64711e-09 -1020.52 1020.52 -5.60241e-09 -1018.17 1018.17 -5.50977e-09 -649.06 493.706 -0.323161 -728.743 558.703 -0.60793 -804.408 621.875 -0.678058 -876.33 682.762 -0.670532 -944.706 741.037 -0.672106 -1009.69 796.465 -0.735979 -1071.4 848.879 -0.892225 -1129.98 898.169 -1.15457 -1133.43 899.178 -0.346605 -1135.6 899.565 0.164095 -1136.65 899.298 0.405809 -1136.72 898.376 0.405766 -1135.99 896.824 0.190147 -1134.6 894.689 -0.215957 -1132.74 892.043 -0.788606 -726.191 415.484 -0.507684 -809.833 469.503 -1.09143 -888.903 523.518 -1.23694 -963.966 576.55 -1.22457 -1035.43 627.907 -1.2312 -1103.59 677.09 -1.36535 -1168.7 723.733 -1.68886 -1230.96 767.572 -2.23082 -1234.26 766.346 -0.590833 -1236.24 765.161 0.443626 -1237.15 763.855 0.927497 -1237.17 762.316 0.913088 -1236.51 760.478 0.450221 -1235.37 758.308 -0.413736 -1233.94 755.806 -1.63394 -803.415 337.354 -0.396937 -888.655 377.52 -1.31193 -969.098 420.219 -1.54539 -1045.57 463.755 -1.53493 -1118.64 506.948 -1.55475 -1188.76 548.948 -1.77316 -1256.27 589.135 -2.28729 -1321.45 627.046 -3.14498 -1323.34 623.129 -0.623562 -1324.1 620.163 0.961502 -1323.98 617.827 1.68844 -1323.21 615.881 1.63012 -1322.02 614.148 0.854608 -1320.61 612.503 -0.574546 -1319.21 610.865 -2.59822 -881.514 260.1 0.206822 -965.656 282.908 -1.09927 -1045.16 311.816 -1.44558 -1121.06 344.077 -1.45116 -1194.08 377.818 -1.49967 -1264.75 411.714 -1.82655 -1333.48 444.803 -2.56994 -1400.63 476.368 -3.80192 -1399.55 469.483 -0.321501 -1397.67 464.744 1.85628 -1395.27 461.639 2.82768 -1392.59 459.777 2.67878 -1389.83 458.862 1.48692 -1387.22 458.668 -0.67845 -1384.95 459.028 -3.75535 -961.822 185.055 1.57853 -1041.51 185.993 -0.225787 -1117.28 198.153 -0.732588 -1190.26 217.151 -0.782487 -1261.23 240.092 -0.887918 -1330.77 264.983 -1.36267 -1399.32 290.397 -2.39448 -1467.26 315.281 -4.0878 -1461.2 305.389 0.461714 -1454.84 299.176 3.29189 -1448.43 295.909 4.50953 -1442.18 295.034 4.20306 -1436.26 296.127 2.44544 -1430.87 298.868 -0.704005 -1426.16 303.014 -5.19867 -1046.58 114.459 4.1348 -1117.26 87.3708 1.63657 -1185.68 79.0865 0.877661 -1252.8 82.5381 0.727618 -1319.3 93.2635 0.514239 -1385.67 108.294 -0.171818 -1452.3 125.563 -1.58049 -1519.54 143.575 -3.86052 -1505.92 130.97 1.90705 -1492.65 123.999 5.47006 -1479.87 121.688 6.93579 -1467.7 123.31 6.37954 -1456.26 128.332 3.84986 -1445.65 136.36 -0.628178 -1435.97 147.114 -7.05134 -1139.69 52.2193 8.56284 -1194.58 -11.908 4.9952 -1250.66 -45.4965 3.80349 -1308.1 -60.2893 3.4428 -1367.06 -63.2648 3.02837 -1427.73 -58.8489 2.0278 -1490.29 -50.0052 0.109725 -1554.95 -38.815 -2.93637 -1530.47 -53.3556 4.24602 -1507.08 -59.753 8.64731 -1484.72 -59.2422 10.3622 -1463.37 -52.6956 9.43143 -1443 -40.7187 5.8501 -1423.58 -23.7131 -0.426638 -1405.08 -1.91992 -9.48132 -76.9684 1377.42 -8.54449 4.8492 1445.82 -4.56404 47.7137 1515.59 -3.6239 66.7473 1586.92 -3.60537 70.8663 1659.99 -3.30683 65.6929 1735.02 -2.01181 54.9741 1812.23 0.721202 41.3318 1891.86 5.16933 60.162 1858.29 -5.07618 69.0132 1825.91 -11.3115 69.3861 1794.65 -13.7218 62.3388 1764.45 -12.4049 48.6042 1735.26 -7.38802 28.668 1707.04 1.36267 2.82195 1679.73 13.9359 -148.2 1262.87 -4.3223 -112.832 1350.94 -1.30461 -101.542 1436.01 -0.602428 -105.201 1519.34 -0.627221 -118.088 1601.76 -0.443171 -136.419 1683.88 0.514374 -157.575 1766.17 2.58644 -179.665 1849.06 5.97285 -162.769 1828.45 -2.23345 -152.845 1808.17 -7.25941 -148.701 1788.37 -9.2945 -149.457 1769.2 -8.47425 -154.463 1750.76 -4.89045 -163.245 1733.19 1.40228 -175.464 1716.57 10.3826 -230.255 1159.15 -1.84938 -230.068 1258.4 0.483523 -244.325 1352.6 1.03979 -267.35 1443.19 1.01859 -295.423 1531.18 1.14485 -325.995 1617.25 1.85884 -357.252 1701.98 3.42134 -387.858 1785.8 5.97524 -373.868 1774.3 -0.48383 -364.489 1762.37 -4.46121 -358.825 1750.31 -6.13546 -356.198 1738.35 -5.65223 -356.094 1726.7 -3.13036 -358.121 1715.57 1.33409 -361.988 1705.14 7.66548 -318.254 1061.37 -0.486819 -345.539 1166.11 1.29607 -380.748 1264.93 1.73842 -420.319 1359.15 1.7317 -461.836 1449.68 1.82443 -503.603 1537.19 2.35087 -544.391 1622.19 3.50556 -583.286 1705.11 5.38869 -572.59 1699.68 0.456374 -564.643 1693.26 -2.59466 -558.819 1686.16 -3.92016 -554.637 1678.66 -3.65619 -551.734 1671.02 -1.92254 -549.834 1663.49 1.17501 -548.732 1656.28 5.54339 -409.382 966.72 0.154398 -458.491 1072.76 1.45513 -510.972 1172.7 1.79079 -564.625 1267.61 1.79534 -617.925 1358.22 1.86349 -669.778 1445.07 2.23616 -719.389 1528.59 3.05153 -766.166 1609.13 4.37703 -758.747 1607.41 0.808876 -752.619 1604.31 -1.40629 -747.386 1600.14 -2.39252 -742.751 1595.17 -2.26242 -738.495 1589.66 -1.11894 -734.463 1583.87 0.943526 -730.55 1578.03 3.83848 -501.966 873.524 0.33183 -568.506 977.483 1.18511 -635.176 1075.67 1.41224 -700.704 1168.8 1.42083 -764.191 1257.4 1.4666 -824.991 1341.83 1.7057 -882.633 1422.4 2.22675 -936.773 1499.36 3.07121 -932.326 1499.49 0.7528 -928.05 1498.07 -0.690294 -923.743 1495.35 -1.34411 -919.265 1491.58 -1.28848 -914.53 1487 -0.59781 -909.494 1481.83 0.658388 -904.149 1476.3 2.41529 -595.017 780.796 0.231226 -675.387 879.718 0.65429 -753.552 973.601 0.769111 -828.912 1062.79 0.775238 -901.038 1147.53 0.798394 -969.62 1228.02 0.915364 -1034.44 1304.39 1.16942 -1095.35 1376.8 1.58029 -1093.35 1377.31 0.438796 -1090.69 1376.32 -0.272868 -1087.34 1374.01 -0.598699 -1083.29 1370.58 -0.579977 -1078.57 1366.2 -0.255564 -1073.21 1361.06 0.337938 -1067.31 1355.37 1.16612 -688.015 688.015 -2.06927e-09 -779.094 779.094 -2.77928e-09 -866.295 866.295 -3.31869e-09 -949.537 949.537 -3.72373e-09 -1028.76 1028.76 -4.02005e-09 -1103.92 1103.92 -4.22692e-09 -1175.01 1175.01 -4.35938e-09 -1242.04 1242.04 -4.429e-09 -1241.76 1241.76 -4.79208e-09 -1240.27 1240.27 -5.04679e-09 -1237.67 1237.67 -5.20951e-09 -1234.04 1234.04 -5.29372e-09 -1229.52 1229.52 -5.3113e-09 -1224.23 1224.23 -5.2721e-09 -1218.31 1218.31 -5.18417e-09 -780.796 595.017 -0.231226 -879.718 675.387 -0.65429 -973.601 753.552 -0.769111 -1062.79 828.912 -0.775238 -1147.53 901.038 -0.798394 -1228.02 969.62 -0.915364 -1304.39 1034.44 -1.16942 -1376.8 1095.35 -1.58029 -1377.31 1093.35 -0.438796 -1376.32 1090.69 0.272868 -1374.01 1087.34 0.598699 -1370.58 1083.29 0.579977 -1366.2 1078.57 0.255564 -1361.06 1073.21 -0.337938 -1355.37 1067.31 -1.16612 -873.524 501.966 -0.33183 -977.483 568.506 -1.18511 -1075.67 635.176 -1.41224 -1168.8 700.704 -1.42083 -1257.4 764.191 -1.4666 -1341.83 824.991 -1.7057 -1422.4 882.633 -2.22675 -1499.36 936.773 -3.07121 -1499.49 932.326 -0.7528 -1498.07 928.05 0.690294 -1495.35 923.743 1.34411 -1491.58 919.265 1.28848 -1487 914.53 0.59781 -1481.83 909.494 -0.658388 -1476.3 904.149 -2.41529 -966.72 409.382 -0.154398 -1072.76 458.491 -1.45513 -1172.7 510.972 -1.79079 -1267.61 564.625 -1.79534 -1358.22 617.925 -1.86349 -1445.07 669.778 -2.23616 -1528.59 719.389 -3.05153 -1609.13 766.166 -4.37703 -1607.41 758.747 -0.808876 -1604.31 752.619 1.40629 -1600.14 747.386 2.39252 -1595.17 742.751 2.26242 -1589.66 738.495 1.11894 -1583.87 734.463 -0.943526 -1578.03 730.55 -3.83848 -1061.37 318.254 0.486819 -1166.11 345.539 -1.29607 -1264.93 380.748 -1.73842 -1359.15 420.319 -1.7317 -1449.68 461.836 -1.82443 -1537.19 503.603 -2.35087 -1622.19 544.391 -3.50556 -1705.11 583.286 -5.38869 -1699.68 572.59 -0.456374 -1693.26 564.643 2.59466 -1686.16 558.819 3.92016 -1678.66 554.637 3.65619 -1671.02 551.734 1.92254 -1663.49 549.834 -1.17501 -1656.28 548.732 -5.54339 -1159.15 230.255 1.84938 -1258.4 230.068 -0.483523 -1352.6 244.325 -1.03979 -1443.19 267.35 -1.01859 -1531.18 295.423 -1.14485 -1617.25 325.995 -1.85884 -1701.98 357.252 -3.42134 -1785.8 387.858 -5.97524 -1774.3 373.868 0.48383 -1762.37 364.489 4.46121 -1750.31 358.825 6.13546 -1738.35 356.198 5.65223 -1726.7 356.094 3.13036 -1715.57 358.121 -1.33409 -1705.14 361.988 -7.66548 -1262.87 148.2 4.3223 -1350.94 112.832 1.30461 -1436.01 101.542 0.602428 -1519.34 105.201 0.627221 -1601.76 118.088 0.443171 -1683.88 136.419 -0.514374 -1766.17 157.575 -2.58644 -1849.06 179.665 -5.97285 -1828.45 162.769 2.23345 -1808.17 152.845 7.25941 -1788.37 148.701 9.2945 -1769.2 149.457 8.47425 -1750.76 154.463 4.89045 -1733.19 163.245 -1.40228 -1716.57 175.464 -10.3826 -1377.42 76.9684 8.54449 -1445.82 -4.8492 4.56404 -1515.59 -47.7137 3.6239 -1586.92 -66.7473 3.60537 -1659.99 -70.8663 3.30683 -1735.02 -65.6929 2.01181 -1812.23 -54.9741 -0.721202 -1891.86 -41.3318 -5.16933 -1858.29 -60.162 5.07618 -1825.91 -69.0132 11.3115 -1794.65 -69.3861 13.7218 -1764.45 -62.3388 12.4049 -1735.26 -48.6042 7.38802 -1707.04 -28.668 -1.36267 -1679.73 -2.82195 -13.9359 -90.5544 1603.99 -8.97294 7.24426 1685.26 -4.51156 57.9882 1768.03 -3.83778 80.1351 1852.52 -4.17447 84.4834 1938.93 -3.96098 77.8019 2027.5 -2.27453 64.5815 2118.48 1.44838 47.9531 2212.11 7.55749 70.1128 2169.65 -6.10366 80.6143 2128.45 -14.3517 81.2036 2088.42 -17.4873 73.1094 2049.49 -15.6841 57.1818 2011.58 