<?xml version="1.0"?> 
<VTKFile type="StructuredGrid" version="0.1"> 
<StructuredGrid WholeExtent="0 29 0 29 0 29"> 
<Piece Extent="0 29 0 29 0 29"> 
<PointData>
<DataArray type="Float32" Name="hfield" format="ascii" NumberOfComponents="3"> 
-2153.23 -5.84077e-09 5.15911e-09 -2093.81 -89.0812 4.97627e-09 -2033.34 -177.103 4.79307e-09 -1971.8 -264.065 4.61011e-09 -1909.21 -349.968 4.42711e-09 -1845.55 -434.812 4.2441e-09 -1780.84 -518.596 4.06095e-09 -1715.06 -601.321 3.87806e-09 -1648.23 -682.986 3.69477e-09 -1580.33 -763.592 3.51179e-09 -1511.38 -843.138 3.32886e-09 -1441.37 -921.625 3.14571e-09 -1370.3 -999.053 2.96268e-09 -1298.17 -1075.42 2.77981e-09 -1224.98 -1150.73 2.59661e-09 -1150.73 -1224.98 2.41221e-09 -1075.42 -1298.17 2.22629e-09 -999.053 -1370.3 2.04071e-09 -921.625 -1441.37 1.85466e-09 -843.138 -1511.38 1.66892e-09 -763.592 -1580.33 1.4831e-09 -682.986 -1648.23 1.29728e-09 -601.321 -1715.06 1.11146e-09 -518.596 -1780.84 9.25525e-10 -434.812 -1845.55 7.39874e-10 -349.968 -1909.21 5.53996e-10 -264.065 -1971.8 3.68004e-10 -177.103 -2033.34 1.8224e-10 -89.0812 -2093.81 -3.63798e-12 1.17325e-10 -2153.23 -1.89402e-10 -2093.81 89.0812 5.00595e-09 -2032.35 -6.09473e-09 4.8221e-09 -1969.9 -88.0948 4.63822e-09 -1906.47 -175.203 4.45447e-09 -1842.04 -261.325 4.27067e-09 -1776.63 -346.461 4.08663e-09 -1710.24 -430.611 3.90261e-09 -1642.86 -513.774 3.71883e-09 -1574.49 -595.95 3.53487e-09 -1505.14 -677.141 3.35094e-09 -1434.8 -757.345 3.16707e-09 -1363.47 -836.562 2.9832e-09 -1291.16 -914.794 2.79939e-09 -1217.86 -992.039 2.61546e-09 -1143.57 -1068.3 2.43159e-09 -1068.3 -1143.57 2.24584e-09 -992.039 -1217.86 2.05835e-09 -914.794 -1291.16 1.87094e-09 -836.562 -1363.47 1.68348e-09 -757.345 -1434.8 1.49597e-09 -677.141 -1505.14 1.30846e-09 -595.95 -1574.49 1.12101e-09 -513.774 -1642.86 9.33382e-10 -430.611 -1710.24 7.45985e-10 -346.461 -1776.63 5.58304e-10 -261.325 -1842.04 3.71191e-10 -175.203 -1906.47 1.83396e-10 -88.0948 -1969.9 -3.83075e-12 1.15023e-10 -2032.35 -1.91512e-10 89.0812 -2093.81 -3.7908e-10 -2033.34 177.103 4.85291e-09 -1969.9 88.0948 4.66814e-09 -1905.55 -6.33217e-09 4.48323e-09 -1840.29 -87.1815 4.29871e-09 -1774.11 -173.45 4.11386e-09 -1707.02 -258.805 3.92932e-09 -1639.02 -343.246 3.74445e-09 -1570.11 -426.775 3.55971e-09 -1500.28 -509.39 3.37498e-09 -1429.53 -591.092 3.19022e-09 -1357.88 -671.88 3.00551e-09 -1285.31 -751.755 2.82069e-09 -1211.83 -830.717 2.6361e-09 -1137.43 -908.766 2.45139e-09 -1062.12 -985.901 2.26663e-09 -985.901 -1062.12 2.07964e-09 -908.766 -1137.43 1.89041e-09 -830.717 -1211.83 1.70128e-09 -751.755 -1285.31 1.51216e-09 -671.88 -1357.88 1.32296e-09 -591.092 -1429.53 1.13382e-09 -509.39 -1500.28 9.44505e-10 -426.775 -1570.11 7.55361e-10 -343.246 -1639.02 5.66275e-10 -258.805 -1707.02 3.76847e-10 -173.45 -1774.11 1.87817e-10 -87.1815 -1840.29 -1.32638e-12 1.06638e-10 -1905.55 -1.9047e-10 88.0948 -1969.9 -3.79613e-10 177.103 -2033.34 -5.68757e-10 -1971.8 264.065 4.69964e-09 -1906.47 175.203 4.51396e-09 -1840.29 87.1815 4.32862e-09 -1773.27 -6.55166e-09 4.1429e-09 -1705.42 -86.3413 3.95739e-09 -1636.72 -171.842 3.77176e-09 -1567.18 -256.503 3.58611e-09 -1496.81 -340.324 3.40051e-09 -1425.59 -423.304 3.21506e-09 -1353.53 -505.444 3.02938e-09 -1280.63 -586.744 2.84378e-09 -1206.9 -667.204 2.65829e-09 -1132.32 -746.824 2.4727e-09 -1056.9 -825.603 2.28704e-09 -980.641 -903.542 2.10156e-09 -903.542 -980.641 1.91338e-09 -825.603 -1056.9 1.72245e-09 -746.824 -1132.32 1.53171e-09 -667.204 -1206.9 1.34079e-09 -586.744 -1280.63 1.15004e-09 -505.444 -1353.53 9.59121e-10 -423.304 -1425.59 7.68174e-10 -340.324 -1496.81 5.77455e-10 -256.503 -1567.18 3.86678e-10 -171.842 -1636.72 1.95788e-10 -86.3413 -1705.42 5.01199e-12 9.4019e-11 -1773.27 -1.86049e-10 87.1815 -1840.29 -3.76654e-10 175.203 -1906.47 -5.67488e-10 264.065 -1971.8 -7.58548e-10 -1909.21 349.968 4.54625e-09 -1842.04 261.325 4.35999e-09 -1774.11 173.45 4.17351e-09 -1705.42 86.3413 3.98703e-09 -1635.95 -6.75442e-09 3.80068e-09 -1565.72 -85.5741 3.61423e-09 -1494.72 -170.381 3.42783e-09 -1422.96 -254.421 3.24145e-09 -1350.43 -337.694 3.05508e-09 -1277.13 -420.199 2.86859e-09 -1203.06 -501.937 2.68216e-09 -1128.23 -582.909 2.49573e-09 -1052.63 -663.113 2.30935e-09 -976.257 -742.55 2.12292e-09 -899.122 -821.219 1.93649e-09 -821.219 -899.122 1.74705e-09 -742.55 -976.257 1.55453e-09 -663.113 -1052.63 1.36201e-09 -582.909 -1128.23 1.16953e-09 -501.937 -1203.06 9.77031e-10 -420.199 -1277.13 7.84537e-10 -337.694 -1350.43 5.91957e-10 -254.421 -1422.96 3.99434e-10 -170.381 -1494.72 2.07082e-10 -85.5741 -1565.72 1.45022e-11 7.85576e-11 -1635.95 -1.77907e-10 86.3413 -1705.42 -3.70543e-10 173.45 -1774.11 -5.63066e-10 261.325 -1842.04 -7.55703e-10 349.968 -1909.21 -9.48225e-10 -1845.55 434.812 4.39321e-09 -1776.63 346.461 4.20605e-09 -1707.02 258.805 4.01854e-09 -1636.72 171.842 3.83132e-09 -1565.72 85.5741 3.64406e-09 -1494.03 -6.93905e-09 3.45689e-09 -1421.64 -84.88 3.26969e-09 -1348.56 -169.066 3.08225e-09 -1274.79 -252.558 2.89513e-09 -1200.32 -335.356 2.70783e-09 -1125.16 -417.459 2.52057e-09 -1049.3 -498.869 2.33324e-09 -972.75 -579.584 2.14595e-09 -895.505 -659.606 1.95868e-09 -817.566 -738.933 1.77141e-09 -738.933 -817.566 1.58075e-09 -659.606 -895.505 1.38657e-09 -579.584 -972.75 1.19229e-09 -498.869 -1049.3 9.9815e-10 -417.459 -1125.16 8.03937e-10 -335.356 -1200.32 6.0981e-10 -252.558 -1274.79 4.15626e-10 -169.066 -1348.56 2.2147e-10 -84.88 -1421.64 2.72581e-11 6.01403e-11 -1494.03 -1.67011e-10 85.5741 -1565.72 -3.61167e-10 171.842 -1636.72 -5.55266e-10 258.805 -1707.02 -7.49478e-10 346.461 -1776.63 -9.43804e-10 434.812 -1845.55 -1.13779e-09 -1780.84 518.596 4.24005e-09 -1710.24 430.611 4.05198e-09 -1639.02 343.246 3.86384e-09 -1567.18 256.503 3.67572e-09 -1494.72 170.381 3.48773e-09 -1421.64 84.88 3.2994e-09 -1347.94 -7.10804e-09 3.1113e-09 -1273.62 -84.259 2.92314e-09 -1198.68 -167.897 2.73512e-09 -1123.11 -250.914 2.54696e-09 -1046.93 -333.31 2.35886e-09 -970.12 -415.085 2.17076e-09 -892.692 -496.239 1.98269e-09 -814.644 -576.771 1.7945e-09 -735.974 -656.683 1.60634e-09 -656.683 -735.974 1.41438e-09 -576.771 -814.644 1.21858e-09 -496.239 -892.692 1.0227e-09 -415.085 -970.12 8.26859e-10 -333.31 -1046.93 6.31042e-10 -250.914 -1123.11 4.35169e-10 -167.897 -1198.68 2.39352e-10 -84.259 -1273.62 4.35068e-11 3.83125e-11 -1347.94 -1.52395e-10 84.88 -1421.64 -3.4824e-10 170.381 -1494.72 -5.44029e-10 256.503 -1567.18 -7.39931e-10 343.246 -1639.02 -9.3589e-10 430.611 -1710.24 -1.13168e-09 518.596 -1780.84 -1.32769e-09 -1715.06 601.321 4.0869e-09 -1642.86 513.774 3.89791e-09 -1570.11 426.775 3.70887e-09 -1496.81 340.324 3.5199e-09 -1422.96 254.421 3.33093e-09 -1348.56 169.066 3.14208e-09 -1273.62 84.259 2.95323e-09 -1198.13 -7.25925e-09 2.76411e-09 -1122.09 -83.711 2.57509e-09 -1045.5 -166.874 2.38624e-09 -968.366 -249.489 2.19727e-09 -890.683 -331.556 2.00828e-09 -812.452 -413.075 1.81931e-09 -733.672 -494.047 1.63032e-09 -654.345 -574.47 1.44144e-09 -574.47 -654.345 1.24812e-09 -494.047 -733.672 1.05062e-09 -413.075 -812.452 8.53089e-10 -331.556 -890.683 6.55512e-10 -249.489 -968.366 4.58006e-10 -166.874 -1045.5 2.60471e-10 -83.711 -1122.09 6.30211e-11 1.55751e-11 -1198.13 -1.34542e-10 84.259 -1273.62 -3.32049e-10 169.066 -1348.56 -5.2964e-10 254.421 -1422.96 -7.27118e-10 340.324 -1496.81 -9.24824e-10 426.775 -1570.11 -1.12207e-09 513.774 -1642.86 -1.31984e-09 601.321 -1715.06 -1.51726e-09 -1648.23 682.986 3.93374e-09 -1574.49 595.95 3.74379e-09 -1500.28 509.39 3.55402e-09 -1425.59 423.304 3.36407e-09 -1350.43 337.694 3.1745e-09 -1274.79 252.558 2.98461e-09 -1198.68 167.897 2.79479e-09 -1122.09 83.711 2.60505e-09 -1045.03 -7.39374e-09 2.41515e-09 -967.49 -83.2361 2.22539e-09 -889.477 -165.997 2.03554e-09 -810.99 -248.284 1.84574e-09 -732.028 -330.095 1.65597e-09 -652.592 -411.432 1.46616e-09 -572.68 -492.293 1.27631e-09 -492.293 -572.68 1.08183e-09 -411.432 -652.592 8.82628e-10 -330.095 -732.028 6.83432e-10 -248.284 -810.99 4.84236e-10 -165.997 -889.477 2.85111e-10 -83.2361 -967.49 8.58295e-11 -9.32232e-12 -1045.03 -1.1331e-10 83.711 -1122.09 -3.12563e-10 167.897 -1198.68 -5.1173e-10 252.558 -1274.79 -7.10926e-10 337.694 -1350.43 -9.10094e-10 423.304 -1425.59 -1.10938e-09 509.39 -1500.28 -1.30843e-09 595.95 -1574.49 -1.50771e-09 682.986 -1648.23 -1.70705e-09 -1580.33 763.592 3.78041e-09 -1505.14 677.141 3.58979e-09 -1429.53 591.092 3.39917e-09 -1353.53 505.444 3.20848e-09 -1277.13 420.199 3.01785e-09 -1200.32 335.356 2.82715e-09 -1123.11 250.914 2.63654e-09 -1045.5 166.874 2.44582e-09 -967.49 83.2361 2.25524e-09 -889.076 -7.5122e-09 2.06458e-09 -810.26 -82.8343 1.87389e-09 -731.042 -165.267 1.68323e-09 -651.423 -247.297 1.49259e-09 -571.401 -328.926 1.30193e-09 -490.978 -410.153 1.11126e-09 -410.153 -490.978 9.15522e-10 -328.926 -571.401 7.14653e-10 -247.297 -651.423 5.13781e-10 -165.267 -731.042 3.1296e-10 -82.8343 -810.26 1.1206e-10 -3.52429e-11 -889.076 -8.88118e-11 83.2361 -967.49 -2.89669e-10 166.874 -1045.5 -4.90526e-10 250.914 -1123.11 -6.91384e-10 335.356 -1200.32 -8.92241e-10 420.199 -1277.13 -1.09313e-09 505.444 -1353.53 -1.29393e-09 591.092 -1429.53 -1.4949e-09 677.141 -1505.14 -1.6957e-09 763.592 -1580.33 -1.89661e-09 -1511.38 843.138 3.6272e-09 -1434.8 757.345 3.43572e-09 -1357.88 671.88 3.24432e-09 -1280.63 586.744 3.05276e-09 -1203.06 501.937 2.86129e-09 -1125.16 417.459 2.66971e-09 -1046.93 333.31 2.47828e-09 -968.366 249.489 2.28674e-09 -889.477 165.997 2.09529e-09 -810.26 82.8343 1.9038e-09 -730.713 -7.61429e-09 1.71227e-09 -650.838 -82.5055 1.52076e-09 -570.634 -164.682 1.32924e-09 -490.101 -246.53 1.13777e-09 -409.24 -328.049 9.46247e-10 -328.049 -409.24 7.4923e-10 -246.53 -490.101 5.46688e-10 -164.682 -570.634 3.44166e-10 -82.5055 -650.838 1.41655e-10 -6.30962e-11 -730.713 -6.09062e-11 82.8343 -810.26 -2.63481e-10 165.997 -889.477 -4.66e-10 249.489 -968.366 -6.68433e-10 333.31 -1046.93 -8.71065e-10 417.459 -1125.16 -1.07361e-09 501.937 -1203.06 -1.2761e-09 586.744 -1280.63 -1.47865e-09 671.88 -1357.88 -1.6812e-09 757.345 -1434.8 -1.88386e-09 843.138 -1511.38 -2.08623e-09 -1441.37 921.625 3.47404e-09 -1363.47 836.562 3.28174e-09 -1285.31 751.755 3.08938e-09 -1206.9 667.204 2.897e-09 -1128.23 582.909 2.70465e-09 -1049.3 498.869 2.51232e-09 -970.12 415.085 2.31997e-09 -890.683 331.556 2.12762e-09 -810.99 248.284 1.9353e-09 -731.042 165.267 1.7429e-09 -650.838 82.5055 1.55064e-09 -570.378 -7.69978e-09 1.35825e-09 -489.663 -82.2498 1.1659e-09 -408.692 -164.244 9.73579e-10 -327.465 -245.982 7.81217e-10 -245.982 -327.465 5.82933e-10 -164.244 -408.692 3.78706e-10 -82.2498 -489.663 1.74516e-10 -9.09495e-11 -570.378 -2.96994e-11 82.5055 -650.838 -2.339e-10 165.267 -731.042 -4.38066e-10 248.284 -810.99 -6.42345e-10 331.556 -890.683 -8.46553e-10 415.085 -970.12 -1.05072e-09 498.869 -1049.3 -1.25496e-09 582.909 -1128.23 -1.45919e-09 667.204 -1206.9 -1.66329e-09 751.755 -1285.31 -1.86755e-09 836.562 -1363.47 -2.07176e-09 921.625 -1441.37 -2.27594e-09 -1370.3 999.053 3.32091e-09 -1291.16 914.794 3.12767e-09 -1211.83 830.717 2.9344e-09 -1132.32 746.824 2.74126e-09 -1052.63 663.113 2.54815e-09 -972.75 579.584 2.35486e-09 -892.692 496.239 2.16171e-09 -812.452 413.075 1.96852e-09 -732.028 330.095 1.77531e-09 -651.423 247.297 1.58215e-09 -570.634 164.682 1.38895e-09 -489.663 82.2498 1.19573e-09 -408.509 -7.7689e-09 1.00255e-09 -327.173 -82.0671 8.09355e-10 -245.653 -163.952 6.16187e-10 -163.952 -245.653 4.16617e-10 -82.0671 -327.173 2.10781e-10 -1.17836e-10 -408.509 4.8972e-12 82.2498 -489.663 -2.01018e-10 164.682 -570.634 -4.06895e-10 247.297 -651.423 -6.12757e-10 330.095 -732.028 -8.18662e-10 413.075 -812.452 -1.02452e-09 496.239 -892.692 -1.23033e-09 579.584 -972.75 -1.43627e-09 663.113 -1052.63 -1.64205e-09 746.824 -1132.32 -1.84804e-09 830.717 -1211.83 -2.05388e-09 914.794 -1291.16 -2.25978e-09 999.053 -1370.3 -2.46573e-09 -1298.17 1075.42 3.16757e-09 -1217.86 992.039 2.97368e-09 -1137.43 908.766 2.7795e-09 -1056.9 825.603 2.58562e-09 -976.257 742.55 2.39147e-09 -895.505 659.606 2.19748e-09 -814.644 576.771 2.00333e-09 -733.672 494.047 1.80937e-09 -652.592 411.432 1.61537e-09 -571.401 328.926 1.42129e-09 -490.101 246.53 1.22732e-09 -408.692 164.244 1.03324e-09 -327.173 82.0671 8.39212e-10 -245.544 -7.82302e-09 6.45173e-10 -163.805 -81.9575 4.51135e-10 -81.9575 -163.805 2.50344e-10 -1.43586e-10 -245.544 4.27932e-11 82.0671 -327.173 -1.64778e-10 164.244 -408.692 -3.72277e-10 246.53 -490.101 -5.79846e-10 328.926 -571.401 -7.87391e-10 411.432 -652.592 -9.94964e-10 494.047 -733.672 -1.20255e-09 576.771 -814.644 -1.41003e-09 659.606 -895.505 -1.61764e-09 742.55 -976.257 -1.82523e-09 825.603 -1056.9 -2.03273e-09 908.766 -1137.43 -2.24019e-09 992.039 -1217.86 -2.44782e-09 1075.42 -1298.17 -2.65529e-09 -1224.98 1150.73 3.01446e-09 -1143.57 1068.3 2.81958e-09 -1062.12 985.901 2.62464e-09 -980.641 903.542 2.42976e-09 -899.122 821.219 2.23493e-09 -817.566 738.933 2.04004e-09 -735.974 656.683 1.84517e-09 -654.345 574.47 1.65023e-09 -572.68 492.293 1.45537e-09 -490.978 410.153 1.26052e-09 -409.24 328.049 1.06564e-09 -327.465 245.982 8.70713e-10 -245.653 163.952 6.75891e-10 -163.805 81.9575 4.80983e-10 -81.921 -7.85979e-09 2.86097e-10 -1.6972e-10 -81.921 8.40466e-11 81.9575 -163.805 -1.25185e-10 163.952 -245.653 -3.34386e-10 245.982 -327.465 -5.43609e-10 328.049 -409.24 -7.52816e-10 410.153 -490.978 -9.621e-10 492.293 -572.68 -1.17129e-09 574.47 -654.345 -1.38043e-09 656.683 -735.974 -1.58974e-09 738.933 -817.566 -1.79902e-09 821.219 -899.122 -2.00818e-09 903.542 -980.641 -2.2173e-09 985.901 -1062.12 -2.42658e-09 1068.3 -1143.57 -2.6358e-09 1150.73 -1224.98 -2.84508e-09 -1150.73 1224.98 2.84255e-09 -1068.3 1143.57 2.64715e-09 -985.901 1062.12 2.45183e-09 -903.542 980.641 2.2566e-09 -821.219 899.122 2.06123e-09 -738.933 817.566 1.86595e-09 -656.683 735.974 1.67056e-09 -574.47 654.345 1.47537e-09 -492.293 572.68 1.28001e-09 -410.153 490.978 1.08468e-09 -328.049 409.24 8.89383e-10 -245.982 327.465 6.94063e-10 -163.952 245.653 4.98746e-10 -81.9575 163.805 3.0343e-10 -1.83476e-10 81.921 1.0812e-10 81.921 -7.86268e-09 -9.42932e-11 163.805 -81.9575 -3.03802e-10 245.653 -163.952 -5.13333e-10 327.465 -245.982 -7.22837e-10 409.24 -328.049 -9.32351e-10 490.978 -410.153 -1.14187e-09 572.68 -492.293 -1.3514e-09 654.345 -574.47 -1.56093e-09 735.974 -656.683 -1.77038e-09 817.566 -738.933 -1.97997e-09 899.122 -821.219 -2.18943e-09 980.641 -903.542 -2.39901e-09 1062.12 -985.901 -2.60848e-09 1143.57 -1068.3 -2.81799e-09 1224.98 -1150.73 -3.02752e-09 -1075.42 1298.17 2.65176e-09 -992.039 1217.86 2.4564e-09 -908.766 1137.43 2.26106e-09 -825.603 1056.9 2.06577e-09 -742.55 976.257 1.8704e-09 -659.606 895.505 1.67508e-09 -576.771 814.644 1.47982e-09 -494.047 733.672 1.28444e-09 -411.432 652.592 1.08912e-09 -328.926 571.401 8.93792e-10 -246.53 490.101 6.98478e-10 -164.244 408.692 5.03164e-10 -82.0671 327.173 3.07836e-10 -1.84684e-10 245.544 1.12529e-10 81.9575 163.805 -8.27995e-11 163.805 81.9575 -2.84681e-10 245.544 -7.83132e-09 -4.93115e-10 327.173 -82.0671 -7.0153e-10 408.692 -164.244 -9.09992e-10 490.101 -246.53 -1.11842e-09 571.401 -328.926 -1.32687e-09 652.592 -411.432 -1.53528e-09 733.672 -494.047 -1.74366e-09 814.644 -576.771 -1.95222e-09 895.505 -659.606 -2.1606e-09 976.257 -742.55 -2.36898e-09 1056.9 -825.603 -2.57748e-09 1137.43 -908.766 -2.78598e-09 1217.86 -992.039 -2.99433e-09 1298.17 -1075.42 -3.20286e-09 -999.053 1370.3 2.46092e-09 -914.794 1291.16 2.26565e-09 -830.717 1211.83 2.07033e-09 -746.824 1132.32 1.87494e-09 -663.113 1052.63 1.67955e-09 -579.584 972.75 1.48429e-09 -496.239 892.692 1.28898e-09 -413.075 812.452 1.09364e-09 -330.095 732.028 8.98289e-10 -247.297 651.423 7.02961e-10 -164.682 570.634 5.07619e-10 -82.2498 489.663 3.12312e-10 -1.85366e-10 408.509 1.16955e-10 82.0671 327.173 -7.83729e-11 163.952 245.653 -2.73701e-10 245.653 163.952 -4.75051e-10 327.173 82.0671 -6.82434e-10 408.509 -7.78311e-09 -8.89745e-10 489.663 -82.2498 -1.09715e-09 570.634 -164.682 -1.30445e-09 651.423 -247.297 -1.51187e-09 732.028 -330.095 -1.71917e-09 812.452 -413.075 -1.92655e-09 892.692 -496.239 -2.1339e-09 972.75 -579.584 -2.34128e-09 1052.63 -663.113 -2.5485e-09 1132.32 -746.824 -2.75591e-09 1211.83 -830.717 -2.96336e-09 1291.16 -914.794 -3.1707e-09 1370.3 -999.053 -3.37801e-09 -921.625 1441.37 2.27021e-09 -836.562 1363.47 2.07482e-09 -751.755 1285.31 1.87948e-09 -667.204 1206.9 1.68416e-09 -582.909 1128.23 1.48881e-09 -498.869 1049.3 1.29347e-09 -415.085 970.12 1.09817e-09 -331.556 890.683 9.0278e-10 -248.284 810.99 7.07445e-10 -165.267 731.042 5.12102e-10 -82.5055 650.838 3.16732e-10 -1.85196e-10 570.378 1.21418e-10 82.2498 489.663 -7.39249e-11 164.244 408.692 -2.69296e-10 245.982 327.465 -4.64624e-10 327.465 245.982 -6.65449e-10 408.692 164.244 -8.71694e-10 489.663 82.2498 -1.07799e-09 570.378 -7.71934e-09 -1.28426e-09 650.838 -82.5055 -1.49053e-09 731.042 -165.267 -1.69683e-09 810.99 -248.284 -1.90313e-09 890.683 -331.556 -2.1094e-09 970.12 -415.085 -2.31566e-09 1049.3 -498.869 -2.52194e-09 1128.23 -582.909 -2.72817e-09 1206.9 -667.204 -2.93448e-09 1285.31 -751.755 -3.14074e-09 1363.47 -836.562 -3.34703e-09 1441.37 -921.625 -3.55331e-09 -843.138 1511.38 2.07945e-09 -757.345 1434.8 1.88401e-09 -671.88 1357.88 1.68875e-09 -586.744 1280.63 1.49343e-09 -501.937 1203.06 1.29799e-09 -417.459 1125.16 1.10268e-09 -333.31 1046.93 9.07306e-10 -249.489 968.366 7.11907e-10 -165.997 889.477 5.16565e-10 -82.8343 810.26 3.21208e-10 -1.84627e-10 730.713 1.25894e-10 82.5055 650.838 -6.94484e-11 164.682 570.634 -2.64833e-10 246.53 490.101 -4.60204e-10 328.049 409.24 -6.55547e-10 409.24 328.049 -8.55811e-10 490.101 246.53 -1.06101e-09 570.634 164.682 -1.26621e-09 650.838 82.5055 -1.47142e-09 730.713 -7.63976e-09 -1.67661e-09 810.26 -82.8343 -1.8818e-09 889.477 -165.997 -2.08695e-09 968.366 -249.489 -2.2923e-09 1046.93 -333.31 -2.49739e-09 1125.16 -417.459 -2.70262e-09 1203.06 -501.937 -2.90785e-09 1280.63 -586.744 -3.11303e-09 1357.88 -671.88 -3.31826e-09 1434.8 -757.345 -3.52338e-09 1511.38 -843.138 -3.72859e-09 -763.592 1580.33 1.88862e-09 -677.141 1505.14 1.69319e-09 -591.092 1429.53 1.49799e-09 -505.444 1353.53 1.30257e-09 -420.199 1277.13 1.10723e-09 -335.356 1200.32 9.11825e-10 -250.914 1123.11 7.16483e-10 -166.874 1045.5 5.21126e-10 -83.2361 967.49 3.25784e-10 -1.82013e-10 889.076 1.30385e-10 82.8343 810.26 -6.4972e-11 165.267 731.042 -2.604e-10 247.297 651.423 -4.55685e-10 328.926 571.401 -6.51141e-10 410.153 490.978 -8.46427e-10 490.978 410.153 -1.04618e-09 571.401 328.926 -1.25033e-09 651.423 247.297 -1.45444e-09 731.042 165.267 -1.65855e-09 810.26 82.8343 -1.86269e-09 889.076 -7.54471e-09 -2.06677e-09 967.49 -83.2361 -2.27089e-09 1045.5 -166.874 -2.47502e-09 1123.11 -250.914 -2.67917e-09 1200.32 -335.356 -2.8833e-09 1277.13 -420.199 -3.08745e-09 1353.53 -505.444 -3.29163e-09 1429.53 -591.092 -3.49553e-09 1505.14 -677.141 -3.69977e-09 1580.33 -763.592 -3.90378e-09 -682.986 1648.23 1.69786e-09 -595.95 1574.49 1.50246e-09 -509.39 1500.28 1.30718e-09 -423.304 1425.59 1.11184e-09 -337.694 1350.43 9.16408e-10 -252.558 1274.79 7.21045e-10 -167.897 1198.68 5.2566e-10 -83.711 1122.09 3.30246e-10 -1.80876e-10 1045.03 1.34904e-10 83.2361 967.49 -6.04814e-11 165.997 889.477 -2.55824e-10 248.284 810.99 -4.51223e-10 330.095 732.028 -6.46594e-10 411.432 652.592 -8.41993e-10 492.293 572.68 -1.03736e-09 572.68 492.293 -1.23657e-09 652.592 411.432 -1.43961e-09 732.028 330.095 -1.64268e-09 810.99 248.284 -1.84571e-09 889.477 165.997 -2.04872e-09 967.49 83.2361 -2.25177e-09 1045.03 -7.43421e-09 -2.45481e-09 1122.09 -83.711 -2.65783e-09 1198.68 -167.897 -2.86093e-09 1274.79 -252.558 -3.06392e-09 1350.43 -337.694 -3.26702e-09 1425.59 -423.304 -3.47012e-09 1500.28 -509.39 -3.67311e-09 1574.49 -595.95 -3.87598e-09 1648.23 -682.986 -4.07914e-09 -601.321 1715.06 1.50715e-09 -513.774 1642.86 1.31183e-09 -426.775 1570.11 1.11645e-09 -340.324 1496.81 9.20956e-10 -254.421 1422.96 7.25663e-10 -169.066 1348.56 5.30193e-10 -84.259 1273.62 3.34751e-10 -1.78943e-10 1198.13 1.3938e-10 83.711 1122.09 -5.59055e-11 166.874 1045.5 -2.51305e-10 249.489 968.366 -4.46761e-10 331.556 890.683 -6.42132e-10 413.075 812.452 -8.37559e-10 494.047 733.672 -1.03282e-09 574.47 654.345 -1.22827e-09 654.345 574.47 -1.42698e-09 733.672 494.047 -1.62898e-09 812.452 413.075 -1.83088e-09 890.683 331.556 -2.03286e-09 968.366 249.489 -2.23471e-09 1045.5 166.874 -2.43674e-09 1122.09 83.711 -2.63876e-09 1198.13 -7.30734e-09 -2.84072e-09 1273.62 -84.259 -3.04271e-09 1348.56 -169.066 -3.24457e-09 1422.96 -254.421 -3.4467e-09 1496.81 -340.324 -3.64855e-09 1570.11 -426.775 -3.85052e-09 1642.86 -513.774 -4.05254e-09 1715.06 -601.321 -4.25439e-09 -518.596 1780.84 1.31649e-09 -430.611 1710.24 1.1209e-09 -343.246 1639.02 9.25588e-10 -256.503 1567.18 7.30218e-10 -170.381 1494.72 5.3474e-10 -84.88 1421.64 3.39384e-10 -1.78261e-10 1347.94 1.43928e-10 84.259 1273.62 -5.14149e-11 167.897 1198.68 -2.46814e-10 250.914 1123.11 -4.42157e-10 333.31 1046.93 -6.37584e-10 415.085 970.12 -8.32983e-10 496.239 892.692 -1.02844e-09 576.771 814.644 -1.22378e-09 656.683 735.974 -1.41921e-09 735.974 656.683 -1.61739e-09 814.644 576.771 -1.81818e-09 892.692 496.239 -2.01909e-09 970.12 415.085 -2.21996e-09 1046.93 333.31 -2.42085e-09 1123.11 250.914 -2.62173e-09 1198.68 167.897 -2.82267e-09 1273.62 84.259 -3.02344e-09 1347.94 -7.165e-09 -3.22444e-09 1421.64 -84.88 -3.42527e-09 1494.72 -170.381 -3.62627e-09 1567.18 -256.503 -3.82693e-09 1639.02 -343.246 -4.02781e-09 1710.24 -430.611 -4.22904e-09 1780.84 -518.596 -4.42969e-09 -434.812 1845.55 1.12561e-09 -346.461 1776.63 9.30328e-10 -258.805 1707.02 7.35035e-10 -171.842 1636.72 5.39401e-10 -85.5741 1565.72 3.43931e-10 -1.77124e-10 1494.03 1.48589e-10 84.88 1421.64 -4.69527e-11 169.066 1348.56 -2.4221e-10 252.558 1274.79 -4.37609e-10 335.356 1200.32 -6.33065e-10 417.459 1125.16 -8.28493e-10 498.869 1049.3 -1.02386e-09 579.584 972.75 -1.21929e-09 659.606 895.505 -1.41466e-09 738.933 817.566 -1.61015e-09 817.566 738.933 -1.80768e-09 895.505 659.606 -2.00753e-09 972.75 579.584 -2.2073e-09 1049.3 498.869 -2.40715e-09 1125.16 417.459 -2.60692e-09 1200.32 335.356 -2.80676e-09 1274.79 252.558 -3.00651e-09 1348.56 169.066 -3.20631e-09 1421.64 84.88 -3.40611e-09 1494.03 -7.00675e-09 -3.60586e-09 1565.72 -85.5741 -3.80578e-09 1636.72 -171.842 -4.00559e-09 1707.02 -258.805 -4.20562e-09 1776.63 -346.461 -4.40525e-09 1845.55 -434.812 -4.605e-09 -349.968 1909.21 9.34847e-10 -261.325 1842.04 7.39526e-10 -173.45 1774.11 5.43963e-10 -86.3413 1705.42 3.48635e-10 -1.78943e-10 1635.95 1.53079e-10 85.5741 1565.72 -4.22915e-11 170.381 1494.72 -2.37634e-10 254.421 1422.96 -4.33147e-10 337.694 1350.43 -6.28546e-10 420.199 1277.13 -8.23917e-10 501.937 1203.06 -1.01932e-09 582.909 1128.23 -1.21474e-09 663.113 1052.63 -1.41023e-09 742.55 976.257 -1.60554e-09 821.219 899.122 -1.80103e-09 899.122 821.219 -1.99815e-09 976.257 742.55 -2.19687e-09 1052.63 663.113 -2.39561e-09 1128.23 582.909 -2.59428e-09 1203.06 501.937 -2.793e-09 1277.13 420.199 -2.99178e-09 1350.43 337.694 -3.19039e-09 1422.96 254.421 -3.38912e-09 1494.72 170.381 -3.58796e-09 1565.72 85.5741 -3.78657e-09 1635.95 -6.83394e-09 -3.98535e-09 1705.42 -86.3413 -4.18413e-09 1774.11 -173.45 -4.38274e-09 1842.04 -261.325 -4.58124e-09 1909.21 -349.968 -4.78019e-09 -264.065 1971.8 7.44308e-10 -175.203 1906.47 5.48596e-10 -87.1815 1840.29 3.53232e-10 -1.79739e-10 1773.27 1.57769e-10 86.3413 1705.42 -3.76446e-11 171.842 1636.72 -2.3303e-10 256.503 1567.18 -4.28514e-10 340.324 1496.81 -6.23885e-10 423.304 1425.59 -8.19369e-10 505.444 1353.53 -1.01483e-09 586.744 1280.63 -1.21014e-09 667.204 1206.9 -1.40574e-09 746.824 1132.32 -1.60105e-09 825.603 1056.9 -1.79654e-09 903.542 980.641 -1.99196e-09 980.641 903.542 -2.18838e-09 1056.9 825.603 -2.38613e-09 1132.32 746.824 -2.58379e-09 1206.9 667.204 -2.78135e-09 1280.63 586.744 -2.97908e-09 1353.53 505.444 -3.17669e-09 1425.59 423.304 -3.37428e-09 1496.81 340.324 -3.5721e-09 1567.18 256.503 -3.76969e-09 1636.72 171.842 -3.96727e-09 1705.42 86.3413 -4.16492e-09 1773.27 -6.64477e-09 -4.36273e-09 1840.29 -87.1815 -4.56032e-09 1906.47 -175.203 -4.75802e-09 1971.8 -264.065 -4.9555e-09 -177.103 2033.34 5.53314e-10 -88.0948 1969.9 3.58018e-10 -1.81046e-10 1905.55 1.62629e-10 87.1815 1840.29 -3.31539e-11 173.45 1774.11 -2.28596e-10 258.805 1707.02 -4.23995e-10 343.246 1639.02 -6.19366e-10 426.775 1570.11 -8.14708e-10 509.39 1500.28 -1.01028e-09 591.092 1429.53 -1.20559e-09 671.88 1357.88 -1.40102e-09 751.755 1285.31 -1.5965e-09 830.717 1211.83 -1.79205e-09 908.766 1137.43 -1.98747e-09 985.901 1062.12 -2.1829e-09 1062.12 985.901 -2.37885e-09 1137.43 908.766 -2.57538e-09 1211.83 830.717 -2.77191e-09 1285.31 751.755 -2.96862e-09 1357.88 671.88 -3.16513e-09 1429.53 591.092 -3.36172e-09 1500.28 509.39 -3.55828e-09 1570.11 426.775 -3.75474e-09 1639.02 343.246 -3.95141e-09 1707.02 258.805 -4.14786e-09 1774.11 173.45 -4.34432e-09 1840.29 87.1815 -4.54122e-09 1905.55 -6.44104e-09 -4.73767e-09 1969.9 -88.0948 -4.93424e-09 2033.34 -177.103 -5.1308e-09 -89.0812 2093.81 3.62661e-10 -1.84883e-10 2032.35 1.67212e-10 88.0948 1969.9 -2.82228e-11 175.203 1906.47 -2.23906e-10 261.325 1842.04 -4.19419e-10 346.461 1776.63 -6.14619e-10 430.611 1710.24 -8.10047e-10 513.774 1642.86 -1.00553e-09 595.95 1574.49 -1.20104e-09 677.141 1505.14 -1.39659e-09 757.345 1434.8 -1.5919e-09 836.562 1363.47 -1.78733e-09 914.794 1291.16 -1.98281e-09 992.039 1217.86 -2.17835e-09 1068.3 1143.57 -2.37378e-09 1143.57 1068.3 -2.56926e-09 1217.86 992.039 -2.76476e-09 1291.16 914.794 -2.96021e-09 1363.47 836.562 -3.15569e-09 1434.8 757.345 -3.35115e-09 1505.14 677.141 -3.54675e-09 1574.49 595.95 -3.74229e-09 1642.86 513.774 -3.93766e-09 1710.24 430.611 -4.13308e-09 1776.63 346.461 -4.32863e-09 1842.04 261.325 -4.5244e-09 1906.47 175.203 -4.7196e-09 1969.9 88.0948 -4.91502e-09 2032.35 -6.22094e-09 -5.11034e-09 2093.81 -89.0812 -5.30611e-09 -1.91903e-10 2153.23 1.71894e-10 89.0812 2093.81 -2.38245e-11 177.103 2033.34 -2.18961e-10 264.065 1971.8 -4.14445e-10 349.968 1909.21 -6.10214e-10 434.812 1845.55 -8.05613e-10 518.596 1780.84 -1.00101e-09 601.321 1715.06 -1.19638e-09 682.986 1648.23 -1.39175e-09 763.592 1580.33 -1.58735e-09 843.138 1511.38 -1.78289e-09 921.625 1441.37 -1.97832e-09 999.053 1370.3 -2.17369e-09 1075.42 1298.17 -2.36929e-09 1150.73 1224.98 -2.56472e-09 1224.98 1150.73 -2.75955e-09 1298.17 1075.42 -2.95398e-09 1370.3 999.053 -3.14847e-09 1441.37 921.625 -3.34288e-09 1511.38 843.138 -3.53725e-09 1580.33 763.592 -3.73177e-09 1648.23 682.986 -3.92612e-09 1715.06 601.321 -4.12041e-09 1780.84 518.596 -4.31487e-09 1845.55 434.812 -4.50927e-09 1909.21 349.968 -4.70391e-09 1971.8 264.065 -4.89786e-09 2033.34 177.103 -5.09249e-09 2093.81 89.0812 -5.28689e-09 2153.23 -5.98629e-09 -5.4813e-09 -2000.47 -4.95311e-09 6.21367e-09 -1945.4 -82.8954 5.99356e-09 -1889.34 -164.797 5.77344e-09 -1832.28 -245.705 5.55377e-09 -1774.24 -325.619 5.33387e-09 -1715.19 -404.539 5.11366e-09 -1655.15 -482.465 4.89396e-09 -1594.12 -559.397 4.67389e-09 -1532.1 -635.336 4.45391e-09 -1469.08 -710.281 4.23393e-09 -1405.07 -784.232 4.014e-09 -1340.06 -857.189 3.79407e-09 -1274.06 -929.152 3.57406e-09 -1207.07 -1000.12 3.35405e-09 -1139.08 -1070.1 3.13406e-09 -1070.1 -1139.08 2.9133e-09 -1000.12 -1207.07 2.69152e-09 -929.152 -1274.06 2.46966e-09 -857.189 -1340.06 2.24786e-09 -784.232 -1405.07 2.02613e-09 -710.281 -1469.08 1.80444e-09 -635.336 -1532.1 1.58266e-09 -559.397 -1594.12 1.36083e-09 -482.465 -1655.15 1.13914e-09 -404.539 -1715.19 9.17623e-10 -325.619 -1774.24 6.95536e-10 -245.705 -1832.28 4.73847e-10 -164.797 -1889.34 2.52157e-10 -82.8954 -1945.4 3.04681e-11 2.13731e-10 -2000.47 -1.91562e-10 -1945.4 82.8954 6.02935e-09 -1888.42 -5.12865e-09 5.80774e-09 -1830.5 -81.9701 5.58635e-09 -1771.66 -163.015 5.36468e-09 -1711.9 -243.134 5.14353e-09 -1651.21 -322.329 4.92201e-09 -1589.6 -400.598 4.70039e-09 -1527.06 -477.941 4.4791e-09 -1463.6 -554.36 4.25765e-09 -1399.21 -629.853 4.03629e-09 -1333.89 -704.421 3.81481e-09 -1267.65 -778.063 3.59336e-09 -1200.49 -850.78 3.372e-09 -1132.4 -922.572 3.15058e-09 -1063.38 -993.439 2.92913e-09 -993.439 -1063.38 2.70656e-09 -922.572 -1132.4 2.48282e-09 -850.78 -1200.49 2.25922e-09 -778.063 -1267.65 2.03554e-09 -704.421 -1333.89 1.81184e-09 -629.853 -1399.21 1.58806e-09 -554.36 -1463.6 1.36454e-09 -477.941 -1527.06 1.14076e-09 -400.598 -1589.6 9.17124e-10 -322.329 -1651.21 6.93375e-10 -243.134 -1711.9 4.69797e-10 -163.015 -1771.66 2.46162e-10 -81.9701 -1830.5 2.22422e-11 2.00515e-10 -1888.42 -2.01393e-10 82.8954 -1945.4 -4.25313e-10 -1889.34 164.797 5.84474e-09 -1830.5 81.9701 5.62175e-09 -1770.81 -5.29681e-09 5.39875e-09 -1710.26 -81.1134 5.17603e-09 -1648.85 -161.37 4.95308e-09 -1586.58 -240.77 4.7303e-09 -1523.46 -319.313 4.5073e-09 -1459.48 -396.999 4.28442e-09 -1394.65 -473.829 4.06156e-09 -1328.96 -549.802 3.83859e-09 -1262.41 -624.918 3.61565e-09 -1195 -699.177 3.39283e-09 -1126.74 -772.58 3.16994e-09 -1057.62 -845.126 2.94714e-09 -987.647 -916.815 2.7242e-09 -916.815 -987.647 2.49987e-09 -845.126 -1057.62 2.27423e-09 -772.58 -1126.74 2.04864e-09 -699.177 -1195 1.82301e-09 -624.918 -1262.41 1.59738e-09 -549.802 -1328.96 1.37179e-09 -473.829 -1394.65 1.14616e-09 -396.999 -1459.48 9.20461e-10 -319.313 -1523.46 6.94936e-10 -240.77 -1586.58 4.69241e-10 -161.37 -1648.85 2.43433e-10 -81.1134 -1710.26 1.80788e-11 1.89459e-10 -1770.81 -2.07559e-10 81.9701 -1830.5 -4.33254e-10 164.797 -1889.34 -6.59006e-10 -1832.28 245.705 5.66003e-09 -1771.66 163.015 5.43588e-09 -1710.26 81.1134 5.21138e-09 -1648.06 -5.4558e-09 4.98705e-09 -1585.08 -80.3252 4.76301e-09 -1521.3 -159.862 4.53837e-09 -1456.74 -238.611 4.31407e-09 -1391.39 -316.571 4.08966e-09 -1325.26 -393.744 3.86529e-09 -1258.33 -470.128 3.64095e-09 -1190.62 -545.724 3.41658e-09 -1122.11 -620.531 3.19229e-09 -1052.82 -694.551 2.96788e-09 -982.746 -767.782 2.74354e-09 -911.88 -840.225 2.51924e-09 -840.225 -911.88 2.29321e-09 -767.782 -982.746 2.06579e-09 -694.551 -1052.82 1.83814e-09 -620.531 -1122.11 1.61051e-09 -545.724 -1190.62 1.38303e-0