<?xml version="1.0"?> 
<VTKFile type="StructuredGrid" version="0.1"> 
<StructuredGrid WholeExtent="0 29 0 29 0 29"> 
<Piece Extent="0 29 0 29 0 29"> 
<PointData>
<DataArray type="Float32" Name="hfield" format="ascii" NumberOfComponents="3"> 
-80.1726 -3.18323e-11 2.37833e-10 -77.5587 -2.91522 2.31452e-10 -74.934 -5.81968 2.25128e-10 -72.2985 -8.71337 2.18478e-10 -69.6523 -11.5963 2.11344e-10 -66.9954 -14.4685 2.05091e-10 -64.3276 -17.3299 1.97701e-10 -61.6491 -20.1806 1.91619e-10 -58.9599 -23.0205 1.85082e-10 -56.2599 -25.8496 1.78261e-10 -53.5491 -28.668 1.71553e-10 -50.8276 -31.4756 1.6496e-10 -48.0953 -34.2724 1.58366e-10 -45.3522 -37.0585 1.51772e-10 -42.5984 -39.8339 1.45178e-10 -39.8339 -42.5984 1.38286e-10 -37.0585 -45.3522 1.31536e-10 -34.2724 -48.0953 1.24714e-10 -31.4756 -50.8276 1.17666e-10 -28.668 -53.5491 1.10845e-10 -25.8496 -56.2599 1.03796e-10 -23.0205 -58.9599 9.70886e-11 -20.1806 -61.6491 9.04947e-11 -17.3299 -64.3276 8.34461e-11 -14.4685 -66.9954 7.63976e-11 -11.5963 -69.6523 6.91216e-11 -8.71337 -72.2985 6.25278e-11 -5.81968 -74.934 5.59339e-11 -2.91522 -77.5587 4.91127e-11 -1.01068e-10 -80.1726 4.18368e-11 -77.5587 2.91522 2.27329e-10 -74.924 -3.01961e-11 2.20808e-10 -72.2792 -2.9052 2.1477e-10 -69.6245 -5.80038 2.08248e-10 -66.9597 -8.68555 2.01869e-10 -64.285 -11.5607 1.95774e-10 -61.6002 -14.4258 1.8911e-10 -58.9053 -17.2809 1.82958e-10 -56.2005 -20.126 1.76522e-10 -53.4857 -22.9611 1.70029e-10 -50.7608 -25.7861 1.63991e-10 -48.0259 -28.6012 1.57384e-10 -45.281 -31.4062 1.51005e-10 -42.5261 -34.2012 1.44626e-10 -39.7611 -36.9862 1.38474e-10 -36.9862 -39.7611 1.31797e-10 -34.2012 -42.5261 1.25404e-10 -31.4062 -45.281 1.18542e-10 -28.6012 -48.0259 1.11879e-10 -25.7861 -50.7608 1.05159e-10 -22.9611 -53.4857 9.84398e-11 -20.126 -56.2005 9.16065e-11 -17.2809 -58.9053 8.51142e-11 -14.4258 -61.6002 7.85082e-11 -11.5607 -64.285 7.16749e-11 -8.68555 -66.9597 6.52963e-11 -5.80038 -69.6245 5.82356e-11 -2.9052 -72.2792 5.1857e-11 -1.01185e-10 -74.924 4.47962e-11 2.91522 -77.5587 3.84176e-11 -74.934 5.81968 2.16144e-10 -72.2792 2.9052 2.10185e-10 -69.6152 -2.83897e-11 2.04255e-10 -66.9419 -2.89592 1.98076e-10 -64.2594 -5.78257 1.9211e-10 -61.5675 -8.65994 1.85661e-10 -58.8664 -11.528 1.79837e-10 -56.156 -14.3869 1.73786e-10 -53.4363 -17.2364 1.67849e-10 -50.7074 -20.0767 1.61684e-10 -47.9691 -22.9077 1.5586e-10 -45.2216 -25.7294 1.49809e-10 -42.4649 -28.5418 1.43644e-10 -39.6988 -31.345 1.3748e-10 -36.9235 -34.1389 1.31542e-10 -34.1389 -36.9235 1.25449e-10 -31.345 -39.6988 1.19073e-10 -28.5418 -42.4649 1.12369e-10 -25.7294 -45.2216 1.05865e-10 -22.9077 -47.9691 9.9588e-11 -20.0767 -50.7074 9.30836e-11 -17.2364 -53.4363 8.65791e-11 -14.3869 -56.156 8.01884e-11 -11.528 -58.8664 7.4025e-11 -8.65994 -61.5675 6.76343e-11 -5.78257 -64.2594 6.07888e-11 -2.89592 -66.9419 5.43981e-11 -1.01153e-10 -69.6152 4.80074e-11 2.9052 -72.2792 4.1844e-11 5.81968 -74.934 3.49985e-11 -72.2985 8.71337 2.05413e-10 -69.6245 5.80038 1.99754e-10 -66.9419 2.89592 1.94152e-10 -64.2508 -2.78995e-11 1.88273e-10 -61.5512 -2.88739 1.82351e-10 -58.843 -5.76625 1.76912e-10 -56.1263 -8.63657 1.70962e-10 -53.4011 -11.4984 1.65069e-10 -50.6673 -14.3516 1.59403e-10 -47.925 -17.1963 1.5368e-10 -45.1741 -20.0325 1.47957e-10 -42.4148 -22.8602 1.4212e-10 -39.6468 -25.6793 1.36398e-10 -36.8704 -28.4899 1.30675e-10 -34.0854 -31.2919 1.24838e-10 -31.2919 -34.0854 1.18853e-10 -28.4899 -36.8704 1.12685e-10 -25.6793 -39.6468 1.06481e-10 -22.8602 -42.4148 1.00249e-10 -20.0325 -45.1741 9.39028e-11 -17.1963 -47.925 8.7841e-11 -14.3516 -50.6673 8.14381e-11 -11.4984 -53.4011 7.52626e-11 -8.63657 -56.1263 6.89734e-11 -5.76625 -58.843 6.26843e-11 -2.88739 -61.5512 5.65088e-11 -1.02951e-10 -64.2508 5.01059e-11 2.89592 -66.9419 4.3703e-11 5.80038 -69.6245 3.79823e-11 8.71337 -72.2985 3.1352e-11 -69.6523 11.5963 1.94682e-10 -66.9597 8.68555 1.88918e-10 -64.2594 5.78257 1.84106e-10 -61.5512 2.88739 1.78384e-10 -58.8352 -2.70042e-11 1.72563e-10 -56.1115 -2.8796 1.67424e-10 -53.3799 -5.7514 1.61973e-10 -50.6406 -8.61542 1.56578e-10 -47.8934 -11.4716 1.50786e-10 -45.1385 -14.3201 1.45675e-10 -42.3758 -17.1607 1.40053e-10 -39.6053 -19.9936 1.34659e-10 -36.827 -22.8186 1.29151e-10 -34.0409 -25.6359 1.23642e-10 -31.247 -28.4453 1.18475e-10 -28.4453 -31.247 1.123e-10 -25.6359 -34.0409 1.06383e-10 -22.8186 -36.827 1.00252e-10 -19.9936 -39.6053 9.42916e-11 -17.1607 -42.3758 8.82176e-11 -14.3201 -45.1385 8.22574e-11 -11.4716 -47.8934 7.60697e-11 -8.61542 -50.6406 7.01095e-11 -5.7514 -53.3799 6.40355e-11 -2.8796 -56.1115 5.78479e-11 -1.04272e-10 -58.8352 5.1774e-11 2.88739 -61.5512 4.58137e-11 5.78257 -64.2594 4.00808e-11 8.68555 -66.9597 3.43479e-11 11.5963 -69.6523 2.74782e-11 -66.9954 14.4685 1.83496e-10 -64.285 11.5607 1.78273e-10 -61.5675 8.65994 1.73519e-10 -58.843 5.76625 1.68183e-10 -56.1115 2.8796 1.62833e-10 -53.3729 -2.6354e-11 1.57851e-10 -50.6272 -2.87255 1.52529e-10 -47.8745 -5.73805 1.47633e-10 -45.1148 -8.59649 1.42283e-10 -42.348 -11.4479 1.3733e-10 -39.5741 -14.2922 1.32093e-10 -36.7932 -17.1295 1.26913e-10 -34.0053 -19.9598 1.2179e-10 -31.2103 -22.783 1.16724e-10 -28.4082 -25.5991 1.1143e-10 -25.5991 -28.4082 1.06045e-10 -22.783 -31.2103 1.00137e-10 -19.9598 -34.0053 9.43351e-11 -17.1295 -36.7932 8.85048e-11 -14.2922 -39.5741 8.26461e-11 -11.4479 -42.348 7.70148e-11 -8.59649 -45.1148 7.09287e-11 -5.73805 -47.8745 6.51837e-11 -2.87255 -50.6272 5.95524e-11 -1.0548e-10 -53.3729 5.34663e-11 2.8796 -56.1115 4.77213e-11 5.76625 -58.843 4.17489e-11 8.65994 -61.5675 3.57765e-11 11.5607 -64.285 3.04862e-11 14.4685 -66.9954 2.45138e-11 -64.3276 17.3299 1.72765e-10 -61.6002 14.4258 1.67871e-10 -58.8664 11.528 1.63331e-10 -56.1263 8.63657 1.58181e-10 -53.3799 5.7514 1.53017e-10 -50.6272 2.87255 1.48534e-10 -47.8682 -2.64322e-11 1.43626e-10 -45.1029 -2.86624 1.38688e-10 -42.3313 -5.72617 1.33893e-10 -39.5533 -8.5798 1.28928e-10 -36.7691 -11.4271 1.24247e-10 -33.9786 -14.2681 1.19338e-10 -31.1817 -17.1028 1.14372e-10 -28.3785 -19.9312 1.09577e-10 -25.5691 -22.7533 1.04612e-10 -22.7533 -25.5691 9.94638e-11 -19.9312 -28.3785 9.38345e-11 -17.1028 -31.1817 8.83616e-11 -14.2681 -33.9786 8.26044e-11 -11.4271 -36.7691 7.70178e-11 -8.5798 -39.5533 7.13743e-11 -5.72617 -42.3313 6.5674e-11 -2.86624 -45.1029 6.00305e-11 -1.08152e-10 -47.8682 5.43871e-11 2.87255 -50.6272 4.87436e-11 5.7514 -53.3799 4.31001e-11 8.63657 -56.1263 3.75703e-11 11.528 -58.8664 3.16995e-11 14.4258 -61.6002 2.63971e-11 17.3299 -64.3276 2.04126e-11 -61.6491 20.1806 1.6192e-10 -58.9053 17.2809 1.57233e-10 -56.156 14.3869 1.52646e-10 -53.4011 11.4984 1.48065e-10 -50.6406 8.61542 1.4357e-10 -47.8745 5.73805 1.38819e-10 -45.1029 2.86624 1.34153e-10 -42.3257 -2.60059e-11 1.29886e-10 -39.543 -2.86067 1.25334e-10 -36.7546 -5.71578 1.20753e-10 -33.9608 -8.56533 1.16173e-10 -31.1613 -11.4093 1.11592e-10 -28.3563 -14.2477 1.07069e-10 -25.5457 -17.0806 1.02488e-10 -22.7296 -19.9078 9.80783e-11 -19.9078 -22.7296 9.30384e-11 -17.0806 -25.5457 8.76315e-11 -14.2477 -28.3563 8.22175e-11 -11.4093 -31.1613 7.67608e-11 -8.56533 -33.9608 7.13326e-11 -5.71578 -36.7546 6.60749e-11 -2.86067 -39.543 6.06467e-11 -1.09722e-10 -42.3257 5.53321e-11 2.86624 -45.1029 4.97902e-11 5.73805 -47.8745 4.4362e-11 8.61542 -50.6406 3.89337e-11 11.4984 -53.4011 3.35055e-11 14.3869 -56.156 2.8191e-11 17.2809 -58.9053 2.27627e-11 20.1806 -61.6491 1.72208e-11 -58.9599 23.0205 1.50848e-10 -56.2005 20.126 1.46479e-10 -53.4363 17.2364 1.42323e-10 -50.6673 14.3516 1.38077e-10 -47.8934 11.4716 1.33598e-10 -45.1148 8.59649 1.2953e-10 -42.3313 5.72617 1.25221e-10 -39.543 2.86067 1.20969e-10 -36.7498 -2.62617e-11 1.16745e-10 -33.9518 -2.85585 1.12635e-10 -31.1491 -5.70688 1.08326e-10 -28.3414 -8.55308 1.0396e-10 -25.529 -11.3945 9.98217e-11 -22.7117 -14.231 9.55126e-11 -19.8897 -17.0627 9.13173e-11 -17.0627 -19.8897 8.65704e-11 -14.231 -22.7117 8.13148e-11 -11.3945 -25.529 7.60734e-11 -8.55308 -28.3414 7.08888e-11 -5.70688 -31.1491 6.56474e-11 -2.85585 -33.9518 6.04344e-11 -1.11676e-10 -36.7498 5.53351e-11 2.86067 -39.543 5.02358e-11 5.72617 -42.3313 4.50797e-11 8.59649 -45.1148 3.9753e-11 11.4716 -47.8934 3.454e-11 14.3516 -50.6673 2.90996e-11 17.2364 -53.4363 2.4114e-11 20.126 -56.2005 1.91284e-11 23.0205 -58.9599 1.38017e-11 -56.2599 25.8496 1.40004e-10 -53.4857 22.9611 1.35934e-10 -50.7074 20.0767 1.31758e-10 -47.925 17.1963 1.28161e-10 -45.1385 14.3201 1.23853e-10 -42.348 11.4479 1.20128e-10 -39.5533 8.5798 1.16062e-10 -36.7546 5.71578 1.1228e-10 -33.9518 2.85585 1.08185e-10 -31.145 -2.62617e-11 1.04347e-10 -28.334 -2.85177 1.00366e-10 -25.519 -5.69946 9.6385e-11 -22.6999 -8.54306 9.2461e-11 -19.8767 -11.3826 8.84802e-11 -17.0494 -14.218 8.44994e-11 -14.218 -17.0494 8.00385e-11 -11.3826 -19.8767 7.50834e-11 -8.54306 -22.6999 7.00714e-11 -5.69946 -25.519 6.50737e-11 -2.85177 -28.334 5.99907e-11 -1.139e-10 -31.145 5.5135e-11 2.85585 -33.9518 5.00804e-11 5.71578 -36.7546 4.51963e-11 8.5798 -39.5533 4.01417e-11 11.4479 -42.348 3.52577e-11 14.3201 -45.1385 3.01462e-11 17.1963 -47.925 2.52622e-11 20.0767 -50.7074 2.01507e-11 22.9611 -53.4857 1.53803e-11 25.8496 -56.2599 1.02689e-11 -53.5491 28.668 1.29159e-10 -50.7608 25.7861 1.25311e-10 -47.9691 22.9077 1.21818e-10 -45.1741 20.0325 1.1791e-10 -42.3758 17.1607 1.14378e-10 -39.5741 14.2922 1.10725e-10 -36.7691 11.4271 1.06959e-10 -33.9608 8.56533 1.03392e-10 -31.1491 5.70688 9.98529e-11 -28.334 2.85177 9.60298e-11 -25.5156 -2.64606e-11 9.24056e-11 -22.6939 -2.84843 8.88098e-11 -19.8689 -5.69352 8.51572e-11 -17.0405 -8.53527 8.15046e-11 -14.2088 -11.3737 7.7852e-11 -11.3737 -14.2088 7.36416e-11 -8.53527 -17.0405 6.87383e-11 -5.69352 -19.8689 6.4041e-11 -2.84843 -22.6939 5.92301e-11 -1.15676e-10 -25.5156 5.4476e-11 2.85177 -28.334 4.98356e-11 5.70688 -31.1491 4.50531e-11 8.56533 -33.9608 4.01569e-11 11.4271 -36.7691 3.53744e-11 14.2922 -39.5741 3.0535e-11 17.1607 -42.3758 2.56956e-11 20.0325 -45.1741 2.10836e-11 22.9077 -47.9691 1.63011e-11 25.7861 -50.7608 1.15186e-11 28.668 -53.5491 6.50873e-12 -50.8276 31.4756 1.18144e-10 -48.0259 28.6012 1.14784e-10 -45.2216 25.7294 1.11431e-10 -42.4148 22.8602 1.08071e-10 -39.6053 19.9936 1.04562e-10 -36.7932 17.1295 1.01309e-10 -33.9786 14.2681 9.79418e-11 -31.1613 11.4093 9.45748e-11 -28.3414 8.55308 9.12362e-11 -25.519 5.69946 8.7855e-11 -22.6939 2.84843 8.44453e-11 -19.8663 -2.6688e-11 8.11494e-11 -17.036 -2.84583 7.78534e-11 -14.2032 -5.68907 7.44438e-11 -11.3677 -8.5297 7.1091e-11 -8.5297 -11.3677 6.7163e-11 -5.68907 -14.2032 6.26063e-11 -2.84583 -17.036 5.79964e-11 -1.17893e-10 -19.8663 5.34291e-11 2.84843 -22.6939 4.88477e-11 5.69946 -25.519 4.43088e-11 8.55308 -28.3414 3.96847e-11 11.4093 -31.1613 3.51174e-11 14.2681 -33.9786 3.05501e-11 17.1295 -36.7932 2.5926e-11 19.9936 -39.6053 2.14156e-11 22.8602 -42.4148 1.67914e-11 25.7294 -45.2216 1.23379e-11 28.6012 -48.0259 7.71373e-12 31.4756 -50.8276 3.08961e-12 -48.0953 34.2724 1.07356e-10 -45.281 31.4062 1.04092e-10 -42.4649 28.5418 1.01232e-10 -39.6468 25.6793 9.79981e-11 -36.827 22.8186 9.49096e-11 -34.0053 19.9598 9.18069e-11 -31.1817 17.1028 8.8896e-11 -28.3563 14.2477 8.57719e-11 -25.529 11.3945 8.27474e-11 -22.6999 8.54306 7.9666e-11 -19.8689 5.69352 7.65419e-11 -17.036 2.84583 7.34889e-11 -14.2013 -2.67733e-11 7.04644e-11 -11.3648 -2.84398 6.74398e-11 -8.52636 -5.6861 6.43584e-11 -5.6861 -8.52636 6.06364e-11 -2.84398 -11.3648 5.62683e-11 -1.19652e-10 -14.2013 5.19376e-11 2.84583 -17.036 4.7614e-11 5.69352 -19.8689 4.3262e-11 8.54306 -22.6999 3.88957e-11 11.3945 -25.529 3.45437e-11 14.2477 -28.3563 3.01348e-11 17.1028 -31.1817 2.57543e-11 19.9598 -34.0053 2.14875e-11 22.8186 -36.827 1.69081e-11 25.6793 -39.6468 1.26698e-11 28.5418 -42.4649 8.37458e-12 31.4062 -45.281 3.96569e-12 34.2724 -48.0953 -4.43192e-13 -45.3522 37.0585 9.62271e-11 -42.5261 34.2012 9.36303e-11 -39.6988 31.345 9.08593e-11 -36.8704 28.4899 8.78362e-11 -34.0409 25.6359 8.5289e-11 -31.2103 22.783 8.24897e-11 -28.3785 19.9312 7.97933e-11 -25.5457 17.0806 7.69975e-11 -22.7117 14.231 7.41804e-11 -19.8767 11.3826 7.13846e-11 -17.0405 8.53527 6.86527e-11 -14.2032 5.68907 6.59422e-11 -11.3648 2.84398 6.31748e-11 -8.52525 -2.68301e-11 6.04216e-11 -5.68461 -2.84286 5.76258e-11 -2.84286 -5.68461 5.41524e-11 -1.21208e-10 -8.52525 5.00263e-11 2.84398 -11.3648 4.59285e-11 5.68907 -14.2032 4.17136e-11 8.53527 -17.0405 3.7591e-11 11.3826 -19.8767 3.33689e-11 14.231 -22.7117 2.92605e-11 17.0806 -25.5457 2.50811e-11 19.9312 -28.3785 2.09869e-11 22.783 -31.2103 1.69354e-11 25.6359 -34.0409 1.28554e-11 28.4899 -36.8704 8.46283e-12 31.345 -39.6988 4.58183e-12 34.2012 -42.5261 7.55418e-14 37.0585 -45.3522 -3.86231e-12 -42.5984 39.8339 8.53399e-11 -39.7611 36.9862 8.27923e-11 -36.9235 34.1389 8.06356e-11 -34.0854 31.2919 7.79975e-11 -31.247 28.4453 7.5466e-11 -28.4082 25.5991 7.3073e-11 -25.5691 22.7533 7.05379e-11 -22.7296 19.9078 6.80348e-11 -19.8897 17.0627 6.56809e-11 -17.0494 14.218 6.32205e-11 -14.2088 11.3737 6.06925e-11 -11.3677 8.5297 5.82888e-11 -8.52636 5.6861 5.58497e-11 -5.68461 2.84286 5.33714e-11 -2.84249 -2.66984e-11 5.09074e-11 -1.22514e-10 -2.84249 4.7716e-11 2.84286 -5.68461 4.37673e-11 5.6861 -8.52636 3.98466e-11 8.5297 -11.3677 3.59055e-11 11.3737 -14.2088 3.19413e-11 14.218 -17.0494 2.80553e-11 17.0627 -19.8897 2.41195e-11 19.9078 -22.7296 2.02406e-11 22.7533 -25.5691 1.63119e-11 25.5991 -28.4082 1.22553e-11 28.4453 -31.247 8.09219e-12 31.2919 -34.0854 4.49748e-12 34.1389 -36.9235 6.7539e-13 36.9862 -39.7611 -3.2746e-12 39.8339 -42.5984 -7.43774e-12 -39.8339 42.5984 7.74349e-11 -36.9862 39.7611 7.52385e-11 -34.1389 36.9235 7.25953e-11 -31.2919 34.0854 7.03091e-11 -28.4453 31.247 6.82281e-11 -25.5991 28.4082 6.55778e-11 -22.7533 25.5691 6.32934e-11 -19.9078 22.7296 6.0929e-11 -17.0627 19.8897 5.86304e-11 -14.218 17.0494 5.62679e-11 -11.3737 14.2088 5.4019e-11 -8.5297 11.3677 5.15534e-11 -5.6861 8.52636 4.92477e-11 -2.84286 5.68461 4.69278e-11 -1.23569e-10 2.84249 4.45581e-11 2.84249 -2.62741e-11 4.14913e-11 5.68461 -2.84286 3.7673e-11 8.52636 -5.6861 3.38645e-11 11.3677 -8.5297 3.01412e-11 14.2088 -11.3737 2.63185e-11 17.0494 -14.218 2.25349e-11 19.8897 -17.0627 1.87725e-11 22.7296 -19.9078 1.49427e-11 25.5691 -22.7533 1.10489e-11 28.4082 -25.5991 7.56728e-12 31.247 -28.4453 3.51008e-12 34.0854 -31.2919 -4.26326e-13 36.9235 -34.1389 -4.04299e-12 39.7611 -36.9862 -7.9865e-12 42.5984 -39.8339 -1.16813e-11 -37.0585 45.3522 7.23333e-11 -34.2012 42.5261 6.97868e-11 -31.345 39.6988 6.74429e-11 -28.4899 36.8704 6.51816e-11 -25.6359 34.0409 6.26414e-11 -22.783 31.2103 6.03393e-11 -19.9312 28.3785 5.7824e-11 -17.0806 25.5457 5.53726e-11 -14.231 22.7117 5.30349e-11 -11.3826 19.8767 5.06404e-11 -8.53527 17.0405 4.82459e-11 -5.68907 14.2032 4.57874e-11 -2.84398 11.3648 4.34e-11 -1.23961e-10 8.52525 4.10267e-11 2.84286 5.68461 3.86109e-11 5.68461 2.84286 3.55698e-11 8.52525 -2.55014e-11 3.1811e-11 11.3648 -2.84398 2.8038e-11 14.2032 -5.68907 2.43645e-11 17.0405 -8.53527 2.05773e-11 19.8767 -11.3826 1.7053e-11 22.7117 -14.231 1.32303e-11 25.5457 -17.0806 9.46443e-12 28.3785 -19.9312 5.74119e-12 31.2103 -22.783 2.01794e-12 34.0409 -25.6359 -1.81899e-12 36.8704 -28.4899 -5.3717e-12 39.6988 -31.345 -9.23706e-12 42.5261 -34.2012 -1.2875e-11 45.3522 -37.0585 -1.65983e-11 -34.2724 48.0953 6.71889e-11 -31.4062 45.281 6.49454e-11 -28.5418 42.4649 6.24709e-11 -25.6793 39.6468 5.9849e-11 -22.8186 36.827 5.74758e-11 -19.9598 34.0053 5.49889e-11 -17.1028 31.1817 5.23528e-11 -14.2477 28.3563 5.0008e-11 -11.3945 25.529 4.75637e-11 -8.54306 22.6999 4.49916e-11 -5.69352 19.8689 4.25473e-11 -2.84583 17.036 4.00462e-11 -1.23624e-10 14.2013 3.76019e-11 2.84398 11.3648 3.5044e-11 5.6861 8.52636 3.26281e-11 8.52636 5.6861 2.95906e-11 11.3648 2.84398 2.6013e-11 14.2013 -2.49898e-11 2.22684e-11 17.036 -2.84583 1.86162e-11 19.8689 -5.69352 1.49356e-11 22.6999 -8.54306 1.1255e-11 25.529 -11.3945 7.67386e-12 28.3563 -14.2477 4.00746e-12 31.1817 -17.1028 3.97904e-13 34.0053 -19.9598 -3.21165e-12 36.827 -22.8186 -6.9349e-12 39.6468 -25.6793 -1.06297e-11 42.4649 -28.5418 -1.42677e-11 45.281 -31.4062 -1.79625e-11 48.0953 -34.2724 -2.14868e-11 -31.4756 50.8276 6.21299e-11 -28.6012 48.0259 5.96607e-11 -25.7294 45.2216 5.70637e-11 -22.8602 42.4148 5.46549e-11 -19.9936 39.6053 5.20401e-11 -17.1295 36.7932 4.94396e-11 -14.2681 33.9786 4.69953e-11 -11.4093 31.1613 4.44373e-11 -8.55308 28.3414 4.18652e-11 -5.69946 25.519 3.93356e-11 -2.84843 22.6939 3.68345e-11 -1.22569e-10 19.8663 3.4305e-11 2.84583 17.036 3.16902e-11 5.68907 14.2032 2.92175e-11 8.5297 11.3677 2.6688e-11 11.3677 8.5297 2.35829e-11 14.2032 5.68907 2.00444e-11 17.036 2.84583 1.64277e-11 19.8663 -2.45137e-11 1.2875e-11 22.6939 -2.84843 9.2939e-12 25.519 -5.69946 5.74119e-12 28.3414 -8.55308 2.10321e-12 31.1613 -11.4093 -1.42109e-12 33.9786 -14.2681 -5.00222e-12 36.7932 -17.1295 -8.58336e-12 39.6053 -19.9936 -1.22782e-11 42.4148 -22.8602 -1.57456e-11 45.2216 -25.7294 -1.93268e-11 48.0259 -28.6012 -2.29079e-11 50.8276 -31.4756 -2.66027e-11 -28.668 53.5491 5.70708e-11 -25.7861 50.7608 5.46407e-11 -22.9077 47.9691 5.19194e-11 -20.0325 45.1741 4.94325e-11 -17.1607 42.3758 4.68674e-11 -14.2922 39.5741 4.41247e-11 -11.4271 36.7691 4.15668e-11 -8.56533 33.9608 3.88809e-11 -5.70688 31.1491 3.62377e-11 -2.85177 28.334 3.37934e-11 -1.20572e-10 25.5156 3.11502e-11 2.84843 22.6939 2.8507e-11 5.69352 19.8689 2.59206e-11 8.53527 17.0405 2.33058e-11 11.3737 14.2088 2.0691e-11 14.2088 11.3737 1.76179e-11 17.0405 8.53527 1.41966e-11 19.8689 5.69352 1.06439e-11 22.6939 2.84843 7.16227e-12 25.5156 -2.43858e-11 3.63798e-12 28.334 -2.85177 5.68434e-14 31.1491 -5.70688 -3.35376e-12 33.9608 -8.56533 -6.9349e-12 36.7691 -11.4271 -1.04592e-11 39.5741 -14.2922 -1.39266e-11 42.3758 -17.1607 -1.73372e-11 45.1741 -20.0325 -2.10321e-11 47.9691 -22.9077 -2.45564e-11 50.7608 -25.7861 -2.80806e-11 53.5491 -28.668 -3.13776e-11 -25.8496 56.2599 5.20686e-11 -22.9611 53.4857 4.96492e-11 -20.0767 50.7074 4.66542e-11 -17.1963 47.925 4.38831e-11 -14.3201 45.1385 4.1382e-11 -11.4479 42.348 3.87388e-11 -8.5798 39.5533 3.60103e-11 -5.71578 36.7546 3.33102e-11 -2.85585 33.9518 3.07523e-11 -1.17936e-10 31.145 2.81375e-11 2.85177 28.334 2.53522e-11 5.69946 25.519 2.27942e-11 8.54306 22.6999 2.00657e-11 11.3826 19.8767 1.74509e-11 14.218 17.0494 1.46656e-11 17.0494 14.218 1.17133e-11 19.8767 11.3826 8.22808e-12 22.6999 8.54306 4.83169e-12 25.519 5.69946 1.36424e-12 28.334 2.85177 -1.9611e-12 31.145 -2.44285e-11 -5.51381e-12 33.9518 -2.85585 -8.81073e-12 36.7546 -5.71578 -1.24487e-11 39.5533 -8.5798 -1.58593e-11 42.348 -11.4479 -1.90994e-11 45.1385 -14.3201 -2.26237e-11 47.925 -17.1963 -2.59206e-11 50.7074 -20.0767 -2.94449e-11 53.4857 -22.9611 -3.29692e-11 56.2599 -25.8496 -3.63798e-11 -23.0205 58.9599 4.70664e-11 -20.126 56.2005 4.43912e-11 -17.2364 53.4363 4.14744e-11 -14.3516 50.6673 3.86819e-11 -11.4716 47.8934 3.60814e-11 -8.59649 45.1148 3.32534e-11 -5.72617 42.3313 3.08091e-11 -2.86067 39.543 2.79101e-11 -1.14845e-10 36.7498 2.51816e-11 2.85585 33.9518 2.23963e-11 5.70688 31.1491 1.96678e-11 8.55308 28.3414 1.69393e-11 11.3945 25.529 1.42677e-11 14.231 22.7117 1.15392e-11 17.0627 19.8897 8.75389e-12 19.8897 17.0627 5.69855e-12 22.7117 14.231 2.38742e-12 25.529 11.3945 -9.37916e-13 28.3414 8.55308 -4.26326e-12 31.1491 5.70688 -7.67386e-12 33.9518 2.85585 -1.10845e-11 36.7498 -2.42153e-11 -1.44951e-11 39.543 -2.86067 -1.7792e-11 42.3313 -5.72617 -2.11458e-11 45.1148 -8.59649 -2.44427e-11 47.8934 -11.4716 -2.7967e-11 50.6673 -14.3516 -3.10365e-11 53.4363 -17.2364 -3.46745e-11 56.2005 -20.126 -3.80851e-11 58.9599 -23.0205 -4.12683e-11 -20.1806 61.6491 4.17231e-11 -17.2809 58.9053 3.9357e-11 -14.3869 56.156 3.62235e-11 -11.4984 53.4011 3.34381e-11 -8.61542 50.6406 3.07807e-11 -5.73805 47.8745 2.79954e-11 -2.86624 45.1029 2.52385e-11 -1.10738e-10 42.3257 2.23395e-11 2.86067 39.543 1.94973e-11 5.71578 36.7546 1.68825e-11 8.56533 33.9608 1.40403e-11 11.4093 31.1613 1.11982e-11 14.2477 28.3563 8.41283e-12 17.0806 25.5457 5.6275e-12 19.9078 22.7296 2.78533e-12 22.7296 19.9078 -2.27374e-13 25.5457 17.0806 -3.55271e-12 28.3563 14.2477 -6.82121e-12 31.1613 11.4093 -1.0175e-11 33.9608 8.56533 -1.34719e-11 36.7546 5.71578 -1.6712e-11 39.543 2.86067 -1.98952e-11 42.3257 -2.45279e-11 -2.30784e-11 45.1029 -2.86624 -2.66027e-11 47.8745 -5.73805 -2.98996e-11 50.6406 -8.61542 -3.31966e-11 53.4011 -11.4984 -3.61524e-11 56.156 -14.3869 -3.99041e-11 58.9053 -17.2809 -4.27463e-11 61.6491 -20.1806 -4.61569e-11 -17.3299 64.3276 3.68345e-11 -14.4258 61.6002 3.39e-11 -11.528 58.8664 3.10934e-11 -8.63657 56.1263 2.8308e-11 -5.7514 53.3799 2.56648e-11 -2.87255 50.6272 2.26521e-11 -1.05729e-10 47.8682 1.96962e-11 2.86624 45.1029 1.68257e-11 5.72617 42.3313 1.39835e-11 8.5798 39.5533 1.11413e-11 11.4271 36.7691 8.35598e-12 14.2681 33.9786 5.40012e-12 17.1028 31.1817 2.67164e-12 19.9312 28.3785 -2.27374e-13 22.7533 25.5691 -3.06954e-12 25.5691 22.7533 -6.08935e-12 28.3785 19.9312 -9.26548e-12 31.1817 17.1028 -1.27329e-11 33.9786 14.2681 -1.58025e-11 36.7691 11.4271 -1.90425e-11 39.5533 8.5798 -2.23395e-11 42.3313 5.72617 -2.52385e-11 45.1029 2.86624 -2.86491e-11 47.8682 -2.46132e-11 -3.1946e-11 50.6272 -2.87255 -3.50155e-11 53.3799 -5.7514 -3.81988e-11 56.1263 -8.63657 -4.17231e-11 58.8664 -11.528 -4.45652e-11 61.6002 -14.4258 -4.77485e-11 64.3276 -17.3299 -5.09317e-11 -14.4685 66.9954 3.18323e-11 -11.5607 64.285 2.88907e-11 -8.65994 61.5675 2.55085e-11 -5.76625 58.843 2.305e-11 -2.8796 56.1115 2.04068e-11 -9.99449e-11 53.3729 1.73941e-11 2.87255 50.6272 1.43814e-11 5.73805 47.8745 1.1255e-11 8.59649 45.1148 8.46967e-12 11.4479 42.348 5.45697e-12 14.2922 39.5741 2.67164e-12 17.1295 36.7932 -3.97904e-13 19.9598 34.0053 -3.29692e-12 22.783 31.2103 -6.25278e-12 25.5991 28.4082 -9.09495e-12 28.4082 25.5991 -1.23137e-11 31.2103 22.783 -1.53193e-11 34.0053 19.9598 -1.83604e-11 36.7932 17.1295 -2.16573e-11 39.5741 14.2922 -2.467e-11 42.348 11.4479 -2.77396e-11 45.1148 8.59649 -3.10365e-11 47.8745 5.73805 -3.41061e-11 50.6272 2.87255 -3.70619e-11 53.3729 -2.43858e-11 -4.02451e-11 56.1115 -2.8796 -4.35421e-11 58.843 -5.76625 -4.72937e-11 61.5675 -8.65994 -4.95675e-11 64.285 -11.5607 -5.36602e-11 66.9954 -14.4685 -5.61613e-11 -11.5963 69.6523 2.68301e-11 -8.68555 66.9597 2.38742e-11 -5.78257 64.2594 2.04921e-11 -2.88739 61.5512 1.76499e-11 -9.34008e-11 58.8352 1.49782e-11 2.8796 56.1115 1.16245e-11 5.7514 53.3799 8.98126e-12 8.61542 50.6406 5.91172e-12 11.4716 47.8934 2.89901e-12 14.3201 45.1385 -5.68434e-14 17.1607 42.3758 -3.24007e-12 19.9936 39.6053 -6.0254e-12 22.8186 36.827 -8.98126e-12 25.6359 34.0409 -1.21645e-11 28.4453 31.247 -1.51203e-11 31.247 28.4453 -1.80762e-11 34.0409 25.6359 -2.10889e-11 36.827 22.8186 -2.42721e-11 39.6053 19.9936 -2.73417e-11 42.3758 17.1607 -3.04112e-11 45.1385 14.3201 -3.33102e-11 47.8934 11.4716 -3.66072e-11 50.6406 8.61542 -3.9563e-11 53.3799 5.7514 -4.25189e-11 56.1115 2.8796 -4.55884e-11 58.8352 -2.47837e-11 -4.88853e-11 61.5512 -2.88739 -5.16138e-11 64.2594 -5.78257 -5.50244e-11 66.9597 -8.68555 -5.82077e-11 69.6523 -11.5963 -6.11635e-11 -8.71337 72.2985 2.16005e-11 -5.80038 69.6245 1.86517e-11 -2.89592 66.9419 1.54472e-11 -8.67502e-11 64.2508 1.24771e-11 2.88739 61.5512 9.37916e-12 5.76625 58.843 6.42331e-12 8.63657 56.1263 3.41061e-12 11.4984 53.4011 3.97904e-13 14.3516 50.6673 -2.72848e-12 17.1963 47.925 -5.74119e-12 20.0325 45.1741 -8.75389e-12 22.8602 42.4148 -1.18234e-11 25.6793 39.6468 -1.50067e-11 28.4899 36.8704 -1.78488e-11 31.2919 34.0854 -2.10321e-11 34.0854 31.2919 -2.39382e-11 36.8704 28.4899 -2.7228e-11 39.6468 25.6793 -2.99565e-11 42.4148 22.8602 -3.31966e-11 45.1741 20.0325 -3.60387e-11 47.925 17.1963 -3.9222e-11 50.6673 14.3516 -4.20641e-11 53.4011 11.4984 -4.51337e-11 56.1263 8.63657 -4.79758e-11 58.843 5.76625 -5.13865e-11 61.5512 2.88739 -5.41149e-11 64.2508 -2.48406e-11 -5.68434e-11 66.9419 -2.89592 -6.0254e-11 69.6245 -5.80038 -6.29825e-11 72.2985 -8.71337 -6.59384e-11 -5.81968 74.934 1.65983e-11 -2.9052 72.2792 1.34222e-11 -7.94067e-11 69.6152 1.04308e-11 2.89592 66.9419 7.24754e-12 5.78257 64.2594 4.12115e-12 8.65994 61.5675 1.47793e-12 11.528 58.8664 -1.93268e-12 14.3869 56.156 -5.22959e-12 17.2364 53.4363 -8.18545e-12 20.0767 50.7074 -1.1255e-11 22.9077 47.9691 -1.45519e-11 25.7294 45.2216 -1.77351e-11 28.5418 42.4649 -2.08047e-11 31.345 39.6988 -2.38742e-11 34.1389 36.9235 -2.68301e-11 36.9235 34.1389 -2.99352e-11 39.6988 31.345 -3.27987e-11 42.4649 28.5418 -3.58114e-11 45.2216 25.7294 -3.88241e-11 47.9691 22.9077 -4.17231e-11 50.7074 20.0767 -4.45652e-11 53.4363 17.2364 -4.76348e-11 56.156 14.3869 -5.05906e-11 58.8664 11.528 -5.34328e-11 61.5675 8.65994 -5.63887e-11 64.2594 5.78257 -5.93445e-11 66.9419 2.89592 -6.2073e-11 69.6152 -2.47837e-11 -6.48015e-11 72.2792 -2.9052 -6.79847e-11 74.934 -5.81968 -7.09406e-11 -2.91522 77.5587 1.15961e-11 -7.0882e-11 74.924 8.41283e-12 2.9052 72.2792 5.18696e-12 5.80038 69.6245 1.79057e-12 8.68555 66.9597 -1.0516e-12 11.5607 64.285 -4.60432e-12 14.4258 61.6002 -7.3328e-12 17.2809 58.9053 -1.08002e-11 20.126 56.2005 -1.40972e-11 22.9611 53.4857 -1.71667e-11 25.7861 50.7608 -2.03499e-11 28.6012 48.0259 -2.34195e-11 31.4062 45.281 -2.6489e-11 34.2012 42.5261 -2.96723e-11 36.9862 39.7611 -3.31966e-11 39.7611 36.9862 -3.59108e-11 42.5261 34.2012 -3.89662e-11 45.281 31.4062 -4.14389e-11 48.0259 28.6012 -4.45084e-11 50.7608 25.7861 -4.70664e-11 53.4857 22.9611 -5.02496e-11 56.2005 20.126 -5.30918e-11 58.9053 17.2809 -5.57066e-11 61.6002 14.4258 -5.91172e-11 64.285 11.5607 -6.16183e-11 66.9597 8.68555 -6.45741e-11 69.6245 5.80038 -6.70752e-11 72.2792 2.9052 -6.98037e-11 74.924 -2.41585e-11 -7.32143e-11 77.5587 -2.91522 -7.59428e-11 -6.26414e-11 80.1726 6.82121e-12 2.91522 77.5587 3.62377e-12 5.81968 74.934 1.7053e-13 8.71337 72.2985 -3.24007e-12 11.5963 69.6523 -6.13909e-12 14.4685 66.9954 -1.00044e-11 17.3299 64.3276 -1.24487e-11 20.1806 61.6491 -1.60298e-11 23.0205 58.9599 -1.94404e-11 25.8496 56.2599 -2.251e-11 28.668 53.5491 -2.59206e-11 31.4756 50.8276 -2.91038e-11 34.2724 48.0953 -3.22871e-11 37.0585 45.3522 -3.5584e-11 39.8339 42.5984 -3.89946e-11 42.5984 39.8339 -4.17941e-11 45.3522 37.0585 -4.47642e-11 48.0953 34.2724 -4.74643e-11 50.8276 31.4756 -5.03633e-11 53.5491 28.668 -5.33191e-11 56.2599 25.8496 -5.58202e-11 58.9599 23.0205 -5.86624e-11 61.6491 20.1806 -6.16183e-11 64.3276 17.3299 -6.3892e-11 66.9954 14.4685 -6.70752e-11 69.6523 11.5963 -6.9349e-11 72.2985 8.71337 -7.25322e-11 74.934 5.81968 -7.50333e-11 77.5587 2.91522 -7.77618e-11 80.1726 -2.39311e-11 -8.0945e-11 -299.4 -1.02318e-10 1.78147e-10 -289.628 -10.8761 1.73351e-10 -279.816 -21.7129 1.68683e-10 -269.965 -32.5101 1.6378e-10 -260.075 -43.268 1.58678e-10 -250.145 -53.9864 1.54245e-10 -240.176 -64.6654 1.49214e-10 -230.167 -75.305 1.44581e-10 -220.119 -85.9051 1.39778e-10 -210.031 -96.4658 1.34946e-10 -199.904 -106.987 1.30285e-10 -189.738 -117.469 1.25283e-10 -179.532 -127.911 1.20508e-10 -169.287 -138.314 1.1562e-10 -159.002 -148.678 1.10958e-10 -148.678 -159.002 1.05949e-10 -138.314 -169.287 1.01153e-10 -127.911 -179.532 9.62359e-11 -117.469 -189.738 9.13758e-11 -106.987 -199.904 8.62883e-11 -96.4658 -210.031 8.13998e-11 -85.9051 -220.119 7.64544e-11 -75.305 -230.167 7.16227e-11 -64.6654 -240.176 6.66205e-11 -53.9864 -250.145 6.18456e-11 -43.268 -260.075 5.69571e-11 -32.5101 -269.965 5.20686e-11 -21.7129 -279.816 4.70664e-11 -10.8761 -289.628 4.19504e-11 -8.59472e-11 -299.4 3.71756e-11 -289.628 10.8761 1.73063e-10 -279.779 -8.98126e-11 1.68528e-10 -269.894 -10.8394 1.63999e-10 -259.973 -21.6421 1.59265e-10 -250.014 -32.4082 1.54054e-10 -240.019 -43.1375 1.49071e-10 -229.987 -53.83 1.44301e-10 -219.919 -64.4859 1.39445e-10 -209.814 -75.1051 1.34675e-10 -199.672 -85.6876 1.29678e-10 -189.493 -96.2333 1.24965e-10 -179.278 -106.742 1.1991e-10 -169.026 -117.215 1.15027e-10 -158.737 -127.65 1.10257e-10 -148.411 -138.049 1.05486e-10 -138.049 -148.411 1.00581e-10 -127.65 -158.737 9.587e-11 -117.215 -169.026 9.10774e-11 -106.742 -179.278 8.6427e-11 -96.2333 -189.493 8.16629e-11 -85.6876 -199.672 7.68988e-11 -75.1051 -209.814 7.21346e-11 -64.4859 -219.919 6.76547e-11 -53.83 -229.987 6.26064e-11 -43.1375 -240.019 5.80696e-11 -32.4082 -250.014 5.34192e-11 -21.6421 -259.973 4.8314e-11 -10.8394 -269.894 4.36636e-11 -8.77236e-11 -279.779 3.90132e-11 10.8761 -289.628 3.45901e-11 -279.816 21.7129 1.68548e-10 -269.894 10.8394 1.63499e-10 -259.939 -7.96945e-11 1.58683e-10 -249.949 -10.8054 1.53741e-10 -239.925 -21.5769 1.4879e-10 -229.868 -32.3143 1.4421e-10 -219.776 -43.0178 1.38905e-10 -209.651 -53.6873 1.34338e-10 -199.491 -64.3228 1.29317e-10 -189.297 -74.9243 1.2441e-10 -179.07 -85.4918 1.19531e-10 -168.808 -96.0253 1.14595e-10 -158.513 -106.525 1.09716e-10 -148.183 -116.99 1.04837e-10 -137.819 -127.422 9.99009e-11 -127.422 -137.819 9.52837e-11 -116.99 -148.183 9.0715e-11 -106.525 -158.513 8.626e-11 -96.0253 -168.808 8.16203e-11 -85.4918 -179.07 7.69806e-11 -74.9243 -189.297 7.2682e-11 -64.3228 -199.491 6.79854e-11 -53.6873 -209.651 6.34594e-11 -43.0178 -219.776 5.88765e-11 -32.3143 -229.868 5.44073e-11 -21.5769 -239.925 5.01087e-11 -10.8054 -249.949 4.53553e-11 -9.01252e-11 -259.939 4.08293e-11 10.8394 -269.894 3.61896e-11 21.7129 -279.816 3.18909e-11 -269.965 32.5101 1.63578e-10 -259.973 21.6421 1.58448e-10 -249.949 10.8054 1.53893e-10 -239.894 -6.99671e-11 1.4887e-10 -229.808 -10.7742 1.43783e-10 -219.691 -21.5171 1.3878e-10 -209.542 -32.2287 1.33991e-10 -199.362 -42.909 1.29117e-10 -189.15 -53.5581 1.24044e-10 -178.908 -64.1759 1.19141e-10 -168.634 -74.7625 1.14153e-10 -158.329 -85.3177 1.09109e-10 -147.993 -95.8417 1.04291e-10 -137.625 -106.334 9.9417e-11 -127.226 -116.796 9.43154e-11 -116.796 -127.226 8.98089e-11 -106.334 -137.625 8.54321e-11 -95.8417 -147.993 8.11158e-11 -85.3177 -158.329 7.67852e-11 -74.7625 -168.634 7.23836e-11 -64.1759 -178.908 6.81241e-11 -53.5581 -189.15 6.3893e-11 -42.909 -199.362 5.93777e-11 -32.2287 -209.542 5.50898e-11 -21.5171 -219.691 5.06882e-11 -10.7742 -229.808 4.60024e-11 -9.16032e-11 -239.894 4.19418e-11 10.8054 -24