<?xml version="1.0"?> 
<VTKFile type="StructuredGrid" version="0.1"> 
<StructuredGrid WholeExtent="0 29 0 29 0 29"> 
<Piece Extent="0 29 0 29 0 29"> 
<PointData>
<DataArray type="Float32" Name="hfield" format="ascii" NumberOfComponents="3"> 
-4173.2 -136.064 2.49543e-11 -4241.04 -17.8474 4.19218e-12 -4308.87 73.8743 -1.53183e-11 -4376.71 144.21 -3.10774e-11 -4444.54 197.098 -4.90417e-11 -4512.38 235.627 -6.25544e-11 -4580.21 262.248 -7.46496e-11 -4648.05 278.936 -7.58668e-11 -4715.88 287.296 -9.07832e-11 -4783.72 288.649 -9.99801e-11 -4851.55 284.089 -1.12777e-10 -4919.39 274.534 -1.16064e-10 -4987.22 260.756 -1.27347e-10 -5055.06 243.411 -1.25639e-10 -5122.89 223.058 -1.47764e-10 -5134.15 218.314 -1.36553e-10 -5088.84 227.238 -1.39961e-10 -5043.53 231.316 -1.43148e-10 -4998.22 230.911 -1.46135e-10 -4952.91 226.34 -1.42433e-10 -4907.6 217.883 -1.51579e-10 -4862.29 205.787 -1.60094e-10 -4816.98 190.272 -1.50606e-10 -4771.67 171.532 -1.64221e-10 -4726.36 149.742 -1.66107e-10 -4681.05 125.059 -1.5751e-10 -4635.73 97.6222 -1.59574e-10 -4590.42 67.5591 -1.71241e-10 -4545.11 34.9838 -1.63413e-10 -4499.8 2.83057e-13 -1.65193e-10 -4015.62 -256.903 1.53954e-11 -4099.38 -174.603 -2.30434e-12 -4181.72 -112.491 -1.78093e-11 -4262.85 -66.8013 -2.95768e-11 -4342.95 -34.5759 -4.34534e-11 -4422.17 -13.4599 -5.54508e-11 -4500.62 -1.55496 -6.66398e-11 -4578.39 2.68552 -7.58966e-11 -4655.55 0.534556 -8.0178e-11 -4732.18 -6.9508 -8.39394e-11 -4808.31 -18.8856 -9.61369e-11 -4884.01 -34.5235 -1.02551e-10 -4959.3 -53.2308 -1.17011e-10 -5034.22 -74.4659 -1.14947e-10 -5108.8 -97.7634 -1.20516e-10 -5126.58 -102.555 -1.08904e-10 -5087.68 -90.8464 -1.20118e-10 -5048.63 -83.2383 -1.44477e-10 -5009.45 -79.4141 -1.25938e-10 -4970.15 -79.0946 -1.41807e-10 -4930.75 -82.0328 -1.25108e-10 -4891.26 -88.0089 -1.45893e-10 -4851.7 -96.8274 -1.41857e-10 -4812.07 -108.313 -1.49414e-10 -4772.38 -122.309 -1.34473e-10 -4732.65 -138.673 -1.52281e-10 -4692.87 -157.278 -1.43519e-10 -4653.06 -178.009 -1.54875e-10 -4613.22 -200.76 -1.37013e-10 -4573.35 -225.436 -1.57147e-10 -3868.05 -387.758 5.82116e-12 -3963.76 -335.456 -9.2665e-12 -4057.15 -298.546 -2.2821e-11 -4148.55 -274.203 -2.98324e-11 -4238.22 -260.173 -4.20217e-11 -4326.38 -254.639 -5.24457e-11 -4413.22 -256.118 -6.18477e-11 -4498.86 -263.39 -6.80811e-11 -4583.45 -275.44 -7.58263e-11 -4667.07 -291.419 -8.28595e-11 -4749.82 -310.61 -8.92512e-11 -4831.76 -332.407 -8.22856e-11 -4912.96 -356.289 -9.64741e-11 -4993.48 -381.811 -1.0541e-10 -5073.35 -408.587 -9.4543e-11 -5096.43 -414.115 -1.06033e-10 -5062.94 -400.438 -1.01397e-10 -5029.18 -390.203 -1.12217e-10 -4995.18 -383.135 -1.14759e-10 -4960.95 -378.99 -1.09991e-10 -4926.54 -377.552 -9.97188e-11 -4891.97 -378.627 -1.14722e-10 -4857.24 -382.043 -1.0522e-10 -4822.39 -387.644 -1.19e-10 -4787.43 -395.291 -1.09764e-10 -4752.37 -404.856 -1.27616e-10 -4717.23 -416.226 -1.24123e-10 -4682.01 -429.297 -1.15573e-10 -4646.73 -443.974 -1.21977e-10 -4611.4 -460.172 -1.14071e-10 -3727.41 -525.542 -2.78474e-12 -3832.07 -498.635 -1.61988e-11 -3933.84 -483.402 -2.8009e-11 -4033.1 -477.696 -3.54941e-11 -4130.15 -479.78 -4.77932e-11 -4225.26 -488.24 -5.6657e-11 -4318.63 -501.909 -7.1122e-11 -4410.43 -519.819 -7.395e-11 -4500.81 -541.16 -7.61986e-11 -4589.89 -565.249 -8.68579e-11 -4677.77 -591.505 -8.81016e-11 -4764.56 -619.436 -8.28368e-11 -4850.31 -648.615 -1.05775e-10 -4935.11 -678.678 -9.61959e-11 -5019.01 -709.308 -1.09017e-10 -5046.3 -716.093 -1.04478e-10 -5017.33 -701.092 -1.06478e-10 -4987.99 -688.952 -1.15894e-10 -4958.3 -679.436 -1.11031e-10 -4928.32 -672.333 -1.19238e-10 -4898.08 -667.454 -1.14238e-10 -4867.6 -664.632 -1.21763e-10 -4836.91 -663.716 -1.23177e-10 -4806.03 -664.568 -1.17969e-10 -4774.99 -667.067 -1.30527e-10 -4743.81 -671.101 -1.20703e-10 -4712.5 -676.568 -1.26876e-10 -4681.08 -683.378 -1.17452e-10 -4649.56 -691.446 -1.32998e-10 -4617.96 -700.694 -1.28737e-10 -3591.46 -668.019 -1.14037e-11 -3702.74 -662.842 -2.39107e-11 -3810.78 -666.413 -3.33408e-11 -3915.96 -677.081 -4.32908e-11 -4018.62 -693.5 -5.27179e-11 -4119 -714.56 -5.35127e-11 -4217.34 -739.342 -6.46077e-11 -4313.83 -767.075 -7.39716e-11 -4408.6 -797.112 -7.2138e-11 -4501.81 -828.904 -8.73897e-11 -4593.57 -861.982 -8.67464e-11 -4683.96 -895.946 -8.59303e-11 -4773.09 -930.451 -9.44656e-11 -4861.02 -965.199 -9.3145e-11 -4947.82 -999.931 -9.54782e-11 -4978.38 -1008.36 -1.06141e-10 -4953.13 -992.535 -1.07929e-10 -4927.43 -979.061 -1.06143e-10 -4901.32 -967.734 -1.01135e-10 -4874.84 -958.373 -1.09117e-10 -4848.03 -950.817 -1.17e-10 -4820.93 -944.92 -1.11531e-10 -4793.56 -940.551 -1.12552e-10 -4765.95 -937.593 -1.07545e-10 -4738.13 -935.938 -1.08809e-10 -4710.13 -935.491 -1.09865e-10 -4681.95 -936.163 -1.10434e-10 -4653.62 -937.875 -1.06029e-10 -4625.16 -940.551 -1.16562e-10 -4596.58 -944.127 -1.12224e-10 -3458.56 -813.535 -1.72542e-11 -3574.6 -827.112 -2.67771e-11 -3687.2 -847.102 -3.51687e-11 -3796.71 -872.229 -3.8553e-11 -3903.47 -901.442 -5.47392e-11 -4007.74 -933.872 -5.76645e-11 -4109.73 -968.79 -6.13311e-11 -4209.64 -1005.59 -6.64767e-11 -4307.62 -1043.74 -7.11212e-11 -4403.81 -1082.82 -7.04288e-11 -4498.32 -1122.44 -8.28324e-11 -4591.26 -1162.28 -8.05792e-11 -4682.72 -1202.07 -8.36784e-11 -4772.78 -1241.56 -9.17276e-11 -4861.5 -1280.54 -9.71025e-11 -4894.48 -1290.88 -7.97311e-11 -4872.27 -1274.62 -1.04039e-10 -4849.54 -1260.26 -9.46324e-11 -4826.34 -1247.63 -1.06374e-10 -4802.72 -1236.58 -9.37955e-11 -4778.71 -1226.96 -1.07727e-10 -4754.36 -1218.66 -1.02553e-10 -4729.69 -1211.55 -1.09132e-10 -4704.74 -1205.56 -1.04087e-10 -4679.53 -1200.57 -1.04695e-10 -4654.09 -1196.51 -1.05054e-10 -4628.44 -1193.3 -1.05781e-10 -4602.6 -1190.87 -1.06012e-10 -4576.59 -1189.17 -1.06293e-10 -4550.43 -1188.13 -1.06507e-10 -3327.45 -960.848 -2.53577e-11 -3446.75 -990.718 -3.37035e-11 -3562.48 -1025.12 -4.15965e-11 -3675 -1063.06 -4.65777e-11 -3784.62 -1103.72 -5.45032e-11 -3891.57 -1146.42 -5.66802e-11 -3996.08 -1190.59 -6.04128e-11 -4098.33 -1235.74 -6.75309e-11 -4198.47 -1281.46 -6.3691e-11 -4296.64 -1327.4 -7.18532e-11 -4392.95 -1373.26 -7.19011e-11 -4487.51 -1418.79 -8.40391e-11 -4580.4 -1463.76 -7.82569e-11 -4671.7 -1507.98 -8.54789e-11 -4761.48 -1551.28 -7.82331e-11 -4796.16 -1563.72 -8.37038e-11 -4776.38 -1547.32 -8.19115e-11 -4756.03 -1532.42 -8.35039e-11 -4735.17 -1518.88 -8.57933e-11 -4713.85 -1506.58 -8.61842e-11 -4692.09 -1495.39 -8.42584e-11 -4669.95 -1485.22 -8.26997e-11 -4647.45 -1475.98 -8.34323e-11 -4624.63 -1467.56 -8.45732e-11 -4601.52 -1459.91 -9.05656e-11 -4578.13 -1452.95 -8.05858e-11 -4554.5 -1446.62 -8.65707e-11 -4530.64 -1440.85 -8.19859e-11 -4506.57 -1435.6 -8.25613e-11 -4482.32 -1430.81 -8.77781e-11 -3197.19 -1109.01 -2.98424e-11 -3318.48 -1153.11 -3.39372e-11 -3436.16 -1200.21 -4.1158e-11 -3550.56 -1249.53 -4.80194e-11 -3661.94 -1300.46 -5.08175e-11 -3770.56 -1352.45 -5.59358e-11 -3876.61 -1405.05 -6.16472e-11 -3980.26 -1457.89 -6.22904e-11 -4081.66 -1510.64 -6.5338e-11 -4180.94 -1563.02 -7.39765e-11 -4278.2 -1614.81 -6.67482e-11 -4373.55 -1665.8 -7.44988e-11 -4467.08 -1715.81 -6.84671e-11 -4558.86 -1764.69 -7.50314e-11 -4648.95 -1812.32 -7.18727e-11 -4684.69 -1826.98 -7.75112e-11 -4666.83 -1810.64 -7.55586e-11 -4648.36 -1795.46 -8.35863e-11 -4629.35 -1781.33 -8.57489e-11 -4609.84 -1768.13 -7.93103e-11 -4589.87 -1755.78 -8.05709e-11 -4569.48 -1744.18 -8.1378e-11 -4548.71 -1733.26 -8.46749e-11 -4527.57 -1722.94 -8.83782e-11 -4506.11 -1713.17 -8.85093e-11 -4484.34 -1703.89 -8.35075e-11 -4462.3 -1695.05 -8.39089e-11 -4439.99 -1686.59 -8.39764e-11 -4417.45 -1678.47 -8.41987e-11 -4394.69 -1670.66 -8.42896e-11 -3067.05 -1257.3 -3.72276e-11 -3189.25 -1313.86 -4.25293e-11 -3307.85 -1372.17 -4.67046e-11 -3423.13 -1431.64 -5.10548e-11 -3535.36 -1491.77 -5.25451e-11 -3644.74 -1552.15 -6.06503e-11 -3751.47 -1612.44 -6.11219e-11 -3855.69 -1672.35 -6.17845e-11 -3957.56 -1731.62 -6.52742e-11 -4057.18 -1790.04 -6.91392e-11 -4154.66 -1847.43 -7.20631e-11 -4250.1 -1903.63 -7.11778e-11 -4343.57 -1958.51 -7.30314e-11 -4435.15 -2011.95 -7.36758e-11 -4524.9 -2063.86 -7.06664e-11 -4561.16 -2080.79 -6.79603e-11 -4544.76 -2064.67 -7.65628e-11 -4527.74 -2049.42 -7.3976e-11 -4510.16 -2034.92 -7.91411e-11 -4492.06 -2021.1 -8.32316e-11 -4473.49 -2007.89 -8.31902e-11 -4454.46 -1995.2 -7.73207e-11 -4435.03 -1982.99 -7.80657e-11 -4415.21 -1971.18 -8.41707e-11 -4395.04 -1959.74 -7.89511e-11 -4374.54 -1948.61 -7.64497e-11 -4353.73 -1937.76 -8.19429e-11 -4332.64 -1927.14 -8.18144e-11 -4311.28 -1916.73 -7.69403e-11 -4289.67 -1906.48 -8.16952e-11 -2936.47 -1405.15 -4.27714e-11 -3058.63 -1472.67 -4.64558e-11 -3177.23 -1540.89 -4.91842e-11 -3292.54 -1609.38 -5.31503e-11 -3404.77 -1677.77 -5.48693e-11 -3514.13 -1745.74 -6.02942e-11 -3620.77 -1813.03 -6.13771e-11 -3724.84 -1879.42 -6.31267e-11 -3826.46 -1944.71 -6.64804e-11 -3925.75 -2008.76 -6.77849e-11 -4022.79 -2071.42 -6.15209e-11 -4117.68 -2132.58 -6.62396e-11 -4210.49 -2192.13 -6.52704e-11 -4301.29 -2249.99 -6.87271e-11 -4390.14 -2306.1 -6.57945e-11 -4426.43 -2325.32 -6.84492e-11 -4411.11 -2309.52 -6.78797e-11 -4395.18 -2294.32 -6.17837e-11 -4378.68 -2279.64 -7.66363e-11 -4361.66 -2265.41 -7.05176e-11 -4344.14 -2251.57 -7.79708e-11 -4326.17 -2238.08 -7.53155e-11 -4307.77 -2224.87 -7.24038e-11 -4288.97 -2211.9 -6.96529e-11 -4269.8 -2199.15 -7.533e-11 -4250.28 -2186.56 -7.28145e-11 -4230.44 -2174.11 -7.57121e-11 -4210.28 -2161.76 -7.55793e-11 -4189.84 -2149.5 -7.05138e-11 -4169.12 -2137.29 -7.27903e-11 -2805.03 -1552.12 -5.0181e-11 -2926.28 -1629.27 -5.39492e-11 -3044.06 -1706.27 -5.51944e-11 -3158.6 -1782.8 -5.53544e-11 -3270.09 -1858.58 -5.85102e-11 -3378.7 -1933.39 -5.89414e-11 -3484.57 -2007.03 -6.02067e-11 -3587.83 -2079.35 -6.30443e-11 -3688.58 -2150.21 -5.94043e-11 -3786.93 -2219.49 -6.1063e-11 -3882.96 -2287.09 -6.50282e-11 -3976.75 -2352.93 -6.39682e-11 -4068.36 -2416.94 -6.21777e-11 -4157.86 -2479.06 -6.1108e-11 -4245.3 -2539.24 -6.54354e-11 -4281.23 -2560.73 -6.02562e-11 -4266.67 -2545.31 -6.35375e-11 -4251.51 -2530.25 -6.06654e-11 -4235.8 -2515.51 -6.22682e-11 -4219.57 -2501.02 -6.15051e-11 -4202.84 -2486.75 -6.25486e-11 -4185.66 -2472.65 -6.37086e-11 -4168.05 -2458.68 -6.97251e-11 -4150.04 -2444.82 -6.39339e-11 -4131.64 -2431.03 -6.42154e-11 -4112.88 -2417.29 -6.22507e-11 -4093.78 -2403.57 -6.20169e-11 -4074.36 -2389.85 -6.21491e-11 -4054.63 -2376.11 -6.46973e-11 -4034.61 -2362.33 -5.98676e-11 -2672.39 -1697.9 -5.61985e-11 -2791.92 -1783.51 -5.90399e-11 -2908.12 -1868.26 -5.70107e-11 -3021.17 -1951.92 -5.82446e-11 -3131.23 -2034.31 -5.87191e-11 -3238.43 -2115.27 -5.88195e-11 -3342.91 -2194.67 -5.96994e-11 -3444.76 -2272.39 -5.95563e-11 -3544.07 -2348.35 -5.75441e-11 -3640.94 -2422.47 -5.68319e-11 -3735.43 -2494.67 -5.90294e-11 -3827.62 -2564.92 -6.04439e-11 -3917.56 -2633.16 -5.89013e-11 -4005.3 -2699.35 -5.63682e-11 -4090.91 -2763.47 -5.94006e-11 -4126.11 -2787.16 -6.14726e-11 -4112.04 -2772.14 -5.93323e-11 -4097.4 -2757.28 -5.77332e-11 -4082.24 -2742.56 -6.19213e-11 -4066.57 -2727.92 -6.24107e-11 -4050.43 -2713.34 -5.98271e-11 -4033.84 -2698.8 -5.97333e-11 -4016.82 -2684.26 -6.00817e-11 -3999.41 -2669.7 -6.3419e-11 -3981.61 -2655.11 -6.34682e-11 -3963.45 -2640.45 -6.19344e-11 -3944.94 -2625.73 -6.21146e-11 -3926.11 -2610.91 -6.20654e-11 -3906.95 -2596 -6.18087e-11 -3887.5 -2580.97 -6.16537e-11 -2538.3 -1842.24 -6.22608e-11 -2655.35 -1935.26 -6.21527e-11 -2769.24 -2026.83 -6.18561e-11 -2880.12 -2116.81 -6.12347e-11 -2988.09 -2205.08 -6.23449e-11 -3093.28 -2291.54 -6.06095e-11 -3195.77 -2376.12 -6.03429e-11 -3295.66 -2458.75 -5.94041e-11 -3393.02 -2539.37 -5.81017e-11 -3487.91 -2617.93 -5.90082e-11 -3580.39 -2694.41 -5.76289e-11 -3670.53 -2768.77 -5.7116e-11 -3758.37 -2840.99 -5.65779e-11 -3843.96 -2911.05 -5.77622e-11 -3927.34 -2978.94 -5.54381e-11 -3961.52 -3004.74 -5.75871e-11 -3947.71 -2990.11 -5.52282e-11 -3933.39 -2975.47 -5.69892e-11 -3918.57 -2960.81 -5.57174e-11 -3903.29 -2946.09 -5.94625e-11 -3887.56 -2931.31 -5.8273e-11 -3871.4 -2916.43 -5.85171e-11 -3854.85 -2901.45 -5.85417e-11 -3837.9 -2886.35 -6.1625e-11 -3820.58 -2871.12 -5.8787e-11 -3802.91 -2855.74 -5.99724e-11 -3784.89 -2840.22 -5.99744e-11 -3766.55 -2824.53 -5.85003e-11 -3747.89 -2808.68 -5.95033e-11 -3728.92 -2792.65 -5.92238e-11 -2402.6 -1984.96 -6.80501e-11 -2516.42 -2084.44 -6.68268e-11 -2627.3 -2181.98 -6.62059e-11 -2735.33 -2277.51 -6.39095e-11 -2840.59 -2370.98 -6.31197e-11 -2943.18 -2462.34 -6.20223e-11 -3043.14 -2551.56 -6.09403e-11 -3140.55 -2638.6 -5.96749e-11 -3235.46 -2723.44 -5.81979e-11 -3327.91 -2806.07 -5.6743e-11 -3417.96 -2886.48 -5.53087e-11 -3505.64 -2964.65 -5.40974e-11 -3591 -3040.59 -5.33829e-11 -3674.07 -3114.3 -5.24622e-11 -3754.89 -3185.77 -5.04762e-11 -3787.78 -3213.58 -4.97846e-11 -3774.05 -3199.29 -4.97124e-11 -3759.87 -3184.86 -5.10302e-11 -3745.25 -3170.27 -5.02895e-11 -3730.22 -3155.51 -5.06313e-11 -3714.78 -3140.56 -5.02788e-11 -3698.95 -3125.43 -5.13196e-11 -3682.74 -3110.1 -5.0139e-11 -3666.18 -3094.57 -4.89637e-11 -3649.26 -3078.83 -4.7733e-11 -3632.01 -3062.87 -4.85619e-11 -3614.43 -3046.71 -4.79724e-11 -3596.54 -3030.32 -4.73712e-11 -3578.33 -3013.72 -4.67455e-11 -3559.83 -2996.89 -4.55087e-11 -2265.17 -2125.96 -7.47241e-11 -2375 -2231.02 -7.24844e-11 -2482.16 -2333.74 -7.02654e-11 -2586.69 -2434.12 -6.83442e-11 -2688.64 -2532.14 -6.61253e-11 -2788.05 -2627.81 -6.43535e-11 -2884.95 -2721.13 -6.24194e-11 -2979.39 -2812.1 -6.09962e-11 -3071.38 -2900.74 -5.94419e-11 -3160.97 -2987.04 -5.75425e-11 -3248.17 -3071.03 -5.65317e-11 -3333.03 -3152.71 -5.54022e-11 -3415.56 -3232.09 -5.36305e-11 -3495.79 -3309.2 -5.22877e-11 -3573.75 -3384.03 -5.12253e-11 -3605.13 -3413.7 -5.09116e-11 -3591.33 -3399.71 -5.19328e-11 -3577.15 -3385.44 -5.21102e-11 -3562.62 -3370.9 -5.29379e-11 -3547.73 -3356.09 -5.30964e-11 -3532.49 -3341.01 -5.33067e-11 -3516.91 -3325.65 -5.3365e-11 -3501.01 -3310.03 -5.35826e-11 -3484.78 -3294.13 -5.32127e-11 -3468.24 -3277.97 -5.34668e-11 -3451.39 -3261.54 -5.36519e-11 -3434.23 -3244.84 -5.31311e-11 -3416.78 -3227.88 -5.29181e-11 -3399.05 -3210.66 -5.29533e-11 -3381.03 -3193.19 -5.26455e-11 -2125.96 -2265.17 -7.36999e-11 -2231.02 -2375 -7.09381e-11 -2333.74 -2482.16 -6.87718e-11 -2434.12 -2586.69 -6.60492e-11 -2532.14 -2688.64 -6.40676e-11 -2627.81 -2788.05 -6.22888e-11 -2721.13 -2884.95 -6.02283e-11 -2812.1 -2979.39 -5.84511e-11 -2900.74 -3071.38 -5.70801e-11 -2987.04 -3160.97 -5.54942e-11 -3071.03 -3248.17 -5.41063e-11 -3152.71 -3333.03 -5.2241e-11 -3232.09 -3415.56 -5.1499e-11 -3309.2 -3495.79 -5.00762e-11 -3384.03 -3573.75 -4.87176e-11 -3413.7 -3605.13 -4.85906e-11 -3399.71 -3591.33 -4.9322e-11 -3385.44 -3577.15 -4.97472e-11 -3370.9 -3562.62 -5.02372e-11 -3356.09 -3547.73 -5.07674e-11 -3341.01 -3532.49 -5.10719e-11 -3325.65 -3516.91 -5.11607e-11 -3310.03 -3501.01 -5.11985e-11 -3294.13 -3484.78 -5.08038e-11 -3277.97 -3468.24 -5.17544e-11 -3261.54 -3451.39 -5.12884e-11 -3244.84 -3434.23 -5.14288e-11 -3227.88 -3416.78 -5.15003e-11 -3210.66 -3399.05 -5.12167e-11 -3193.19 -3381.03 -5.09024e-11 -1984.96 -2402.6 -6.53202e-11 -2084.44 -2516.42 -6.31847e-11 -2181.98 -2627.3 -6.06114e-11 -2277.51 -2735.33 -5.98583e-11 -2370.98 -2840.59 -5.77444e-11 -2462.34 -2943.18 -5.60545e-11 -2551.56 -3043.14 -5.44631e-11 -2638.6 -3140.55 -5.31589e-11 -2723.44 -3235.46 -5.21568e-11 -2806.07 -3327.91 -5.12131e-11 -2886.48 -3417.96 -5.0329e-11 -2964.65 -3505.64 -4.92967e-11 -3040.59 -3591 -4.78331e-11 -3114.3 -3674.07 -4.66555e-11 -3185.77 -3754.89 -4.65868e-11 -3213.58 -3787.78 -4.70314e-11 -3199.29 -3774.05 -4.84378e-11 -3184.86 -3759.87 -4.82475e-11 -3170.27 -3745.25 -4.99016e-11 -3155.51 -3730.22 -5.03017e-11 -3140.56 -3714.78 -5.1219e-11 -3125.43 -3698.95 -5.05956e-11 -3110.1 -3682.74 -5.20471e-11 -3094.57 -3666.18 -5.33656e-11 -3078.83 -3649.26 -5.46207e-11 -3062.87 -3632.01 -5.37068e-11 -3046.71 -3614.43 -5.40999e-11 -3030.32 -3596.54 -5.44187e-11 -3013.72 -3578.33 -5.46741e-11 -2996.89 -3559.83 -5.54618e-11 -1842.24 -2538.3 -5.70633e-11 -1935.26 -2655.35 -5.57247e-11 -2026.83 -2769.24 -5.46862e-11 -2116.81 -2880.12 -5.3659e-11 -2205.08 -2988.09 -5.33688e-11 -2291.54 -3093.28 -5.21089e-11 -2376.12 -3195.77 -5.0374e-11 -2458.75 -3295.66 -4.92373e-11 -2539.37 -3393.02 -4.76846e-11 -2617.93 -3487.91 -4.66274e-11 -2694.41 -3580.39 -4.51745e-11 -2768.77 -3670.53 -4.72531e-11 -2840.99 -3758.37 -4.32648e-11 -2911.05 -3843.96 -4.48052e-11 -2978.94 -3927.34 -4.18004e-11 -3004.74 -3961.52 -4.29303e-11 -2990.11 -3947.71 -4.16895e-11 -2975.47 -3933.39 -4.26057e-11 -2960.81 -3918.57 -4.49328e-11 -2946.09 -3903.29 -4.16559e-11 -2931.31 -3887.56 -4.37711e-11 -2916.43 -3871.4 -4.40763e-11 -2901.45 -3854.85 -4.72689e-11 -2886.35 -3837.9 -4.31253e-11 -2871.12 -3820.58 -4.60445e-11 -2855.74 -3802.91 -4.21561e-11 -2840.22 -3784.89 -4.20917e-11 -2824.53 -3766.55 -4.46717e-11 -2808.68 -3747.89 -4.45738e-11 -2792.65 -3728.92 -4.44293e-11 -1697.9 -2672.39 -4.80043e-11 -1783.51 -2791.92 -4.55627e-11 -1868.26 -2908.12 -4.7814e-11 -1951.92 -3021.17 -4.66253e-11 -2034.31 -3131.23 -4.60569e-11 -2115.27 -3238.43 -4.57379e-11 -2194.67 -3342.91 -4.45328e-11 -2272.39 -3444.76 -4.42498e-11 -2348.35 -3544.07 -4.57506e-11 -2422.47 -3640.94 -4.5865e-11 -2494.67 -3735.43 -4.30015e-11 -2564.92 -3827.62 -4.08611e-11 -2633.16 -3917.56 -4.16379e-11 -2699.35 -4005.3 -4.33434e-11 -2763.47 -4090.91 -3.94389e-11 -2787.16 -4126.11 -3.78741e-11 -2772.14 -4112.04 -4.41704e-11 -2757.28 -4097.4 -4.478e-11 -2742.56 -4082.24 -4.1833e-11 -2727.92 -4066.57 -4.23826e-11 -2713.34 -4050.43 -4.58093e-11 -2698.8 -4033.84 -4.65778e-11 -2684.26 -4016.82 -4.49475e-11 -2669.7 -3999.41 -4.37881e-11 -2655.11 -3981.61 -4.69189e-11 -2640.45 -3963.45 -4.27964e-11 -2625.73 -3944.94 -4.54396e-11 -2610.91 -3926.11 -4.79561e-11 -2596 -3906.95 -4.3003e-11 -2580.97 -3887.5 -4.52962e-11 -1552.12 -2805.03 -3.95168e-11 -1629.27 -2926.28 -3.80957e-11 -1706.27 -3044.06 -3.88138e-11 -1782.8 -3158.6 -4.02849e-11 -1858.58 -3270.09 -3.65583e-11 -1933.39 -3378.7 -3.91556e-11 -2007.03 -3484.57 -3.87685e-11 -2079.35 -3587.83 -3.66057e-11 -2150.21 -3688.58 -4.07424e-11 -2219.49 -3786.93 -3.94152e-11 -2287.09 -3882.96 -3.56461e-11 -2352.93 -3976.75 -3.67672e-11 -2416.94 -4068.36 -3.85159e-11 -2479.06 -4157.86 -3.70151e-11 -2539.24 -4245.3 -3.48392e-11 -2560.73 -4281.23 -4.09303e-11 -2545.31 -4266.67 -3.95708e-11 -2530.25 -4251.51 -4.40969e-11 -2515.51 -4235.8 -4.15031e-11 -2501.02 -4219.57 -4.20727e-11 -2486.75 -4202.84 -4.58767e-11 -2472.65 -4185.66 -4.23529e-11 -2458.68 -4168.05 -4.02061e-11 -2444.82 -4150.04 -4.33319e-11 -2431.03 -4131.64 -4.66056e-11 -2417.29 -4112.88 -4.88104e-11 -2403.57 -4093.78 -4.64155e-11 -2389.85 -4074.36 -4.64308e-11 -2376.11 -4054.63 -4.63991e-11 -2362.33 -4034.61 -4.63344e-11 -1405.15 -2936.47 -3.09015e-11 -1472.67 -3058.63 -3.1589e-11 -1540.89 -3177.23 -3.26618e-11 -1609.38 -3292.54 -3.24801e-11 -1677.77 -3404.77 -3.31649e-11 -1745.74 -3514.13 -3.02478e-11 -1813.03 -3620.77 -3.34202e-11 -1879.42 -3724.84 -3.34711e-11 -1944.71 -3826.46 -3.44079e-11 -2008.76 -3925.75 -2.97036e-11 -2071.42 -4022.79 -3.80574e-11 -2132.58 -4117.68 -3.33263e-11 -2192.13 -4210.49 -3.49625e-11 -2249.99 -4301.29 -3.65428e-11 -2306.1 -4390.14 -3.5561e-11 -2325.32 -4426.43 -3.67349e-11 -2309.52 -4411.11 -4.17128e-11 -2294.32 -4395.18 -4.18385e-11 -2279.64 -4378.68 -3.61742e-11 -2265.41 -4361.66 -4.04822e-11 -2251.57 -4344.14 -4.05901e-11 -2238.08 -4326.17 -4.10867e-11 -2224.87 -4307.77 -4.4338e-11 -2211.9 -4288.97 -4.1864e-11 -2199.15 -4269.8 -4.19304e-11 -2186.56 -4250.28 -4.49915e-11 -2174.11 -4230.44 -4.25613e-11 -2161.76 -4210.28 -4.51634e-11 -2149.5 -4189.84 -4.51777e-11 -2137.29 -4169.12 -4.27971e-11 -1257.3 -3067.05 -2.28988e-11 -1313.86 -3189.25 -2.40545e-11 -1372.17 -3307.85 -2.55081e-11 -1431.64 -3423.13 -2.61627e-11 -1491.77 -3535.36 -2.90536e-11 -1552.15 -3644.74 -2.47983e-11 -1612.44 -3751.47 -2.77387e-11 -1672.35 -3855.69 -3.00674e-11 -1731.62 -3957.56 -2.92066e-11 -1790.04 -4057.18 -2.76236e-11 -1847.43 -4154.66 -2.67035e-11 -1903.63 -4250.1 -2.45656e-11 -1958.51 -4343.57 -2.89511e-11 -2011.95 -4435.15 -2.9573e-11 -2063.86 -4524.9 -3.36583e-11 -2080.79 -4561.16 -3.81536e-11 -2064.67 -4544.76 -3.19638e-11 -2049.42 -4527.74 -3.66854e-11 -2034.92 -4510.16 -2.9568e-11 -2021.1 -4492.06 -3.09435e-11 -2007.89 -4473.49 -3.24048e-11 -1995.2 -4454.46 -3.61263e-11 -1982.99 -4435.03 -3.372e-11 -1971.18 -4415.21 -3.45596e-11 -1959.74 -4395.04 -4.04917e-11 -1948.61 -4374.54 -4.35697e-11 -1937.76 -4353.73 -3.85123e-11 -1927.14 -4332.64 -3.89485e-11 -1916.73 -4311.28 -3.91234e-11 -1906.48 -4289.67 -3.93543e-11 -1109.01 -3197.19 -1.29319e-11 -1153.11 -3318.48 -1.62898e-11 -1200.21 -3436.16 -1.89301e-11 -1249.53 -3550.56 -1.79554e-11 -1300.46 -3661.94 -2.12259e-11 -1352.45 -3770.56 -2.40847e-11 -1405.05 -3876.61 -2.50297e-11 -1457.89 -3980.26 -2.85621e-11 -1510.64 -4081.66 -2.84632e-11 -1563.02 -4180.94 -2.71841e-11 -1614.81 -4278.2 -3.14487e-11 -1665.8 -4373.55 -2.50413e-11 -1715.81 -4467.08 -3.04044e-11 -1764.69 -4558.86 -3.43382e-11 -1812.32 -4648.95 -3.09755e-11 -1826.98 -4684.69 -3.17436e-11 -1810.64 -4666.83 -3.59417e-11 -1795.46 -4648.36 -3.07713e-11 -1781.33 -4629.35 -3.79152e-11 -1768.13 -4609.84 -3.90934e-11 -1755.78 -4589.87 -3.94983e-11 -1744.18 -4569.48 -3.98807e-11 -1733.26 -4548.71 -3.7881e-11 -1722.94 -4527.57 -4.12382e-11 -1713.17 -4506.11 -3.64553e-11 -1703.89 -4484.34 -4.20705e-11 -1695.05 -4462.3 -4.76078e-11 -1686.59 -4439.99 -4.77792e-11 -1678.47 -4417.45 -4.29327e-11 -1670.66 -4394.69 -4.30763e-11 -960.848 -3327.45 -4.48828e-12 -990.718 -3446.75 -7.13102e-12 -1025.12 -3562.48 -9.50345e-12 -1063.06 -3675 -1.36884e-11 -1103.72 -3784.62 -1.14182e-11 -1146.42 -3891.57 -1.51166e-11 -1190.59 -3996.08 -1.45964e-11 -1235.74 -4098.33 -1.21502e-11 -1281.46 -4198.47 -2.20914e-11 -1327.4 -4296.64 -1.9317e-11 -1373.26 -4392.95 -2.37857e-11 -1418.79 -4487.51 -2.26846e-11 -1463.76 -4580.4 -2.3395e-11 -1507.98 -4671.7 -2.77115e-11 -1551.28 -4761.48 -3.18618e-11 -1563.72 -4796.16 -3.63234e-11 -1547.32 -4776.38 -2.31548e-11 -1532.42 -4756.03 -2.75122e-11 -1518.88 -4735.17 -3.20516e-11 -1506.58 -4713.85 -3.7454e-11 -1495.39 -4692.09 -3.75428e-11 -1485.22 -4669.95 -4.48316e-11 -1475.98 -4647.45 -3.30225e-11 -1467.56 -4624.63 -3.98737e-11 -1459.91 -4601.52 -4.03891e-11 -1452.95 -4578.13 -5.13769e-11 -1446.62 -4554.5 -4.62627e-11 -1440.85 -4530.64 -5.15661e-11 -1435.6 -4506.57 -5.16005e-11 -1430.81 -4482.32 -4.68642e-11 -813.535 -3458.56 5.5016e-12 -827.112 -3574.6 1.42644e-12 -847.102 -3687.2 -2.22166e-12 -872.229 -3796.71 -9.58105e-12 -901.442 -3903.47 -2.96627e-12 -933.872 -4007.74 -8.63438e-12 -968.79 -4109.73 -1.26615e-11 -1005.59 -4209.64 -1.03253e-11 -1043.74 -4307.62 -1.60326e-11 -1082.82 -4403.81 -2.23496e-11 -1122.44 -4498.32 -1.50257e-11 -1162.28 -4591.26 -2.18498e-11 -1202.07 -4682.72 -2.28979e-11 -1241.56 -4772.78 -1.86048e-11 -1280.54 -4861.5 -1.65941e-11 -1290.88 -4894.48 -2.95055e-11 -1274.62 -4872.27 -1.64238e-11 -1260.26 -4849.54 -2.16129e-11 -1247.63 -4826.34 -1.9917e-11 -1236.58 -4802.72 -2.82315e-11 -1226.96 -4778.71 -2.331e-11 -1218.66 -4754.36 -3.05126e-11 -1211.55 -4729.69 -1.96956e-11 -1205.56 -4704.74 -3.24275e-11 -1200.57 -4679.53 -3.32613e-11 -1196.51 -4654.09 -2.34725e-11 -1193.3 -4628.44 -3.4591e-11 -1190.87 -4602.6 -3.53558e-11 -1189.17 -4576.59 -3.10275e-11 -1188.13 -4550.43 -2.69898e-11 -668.019 -3591.46 1.62624e-11 -662.842 -3702.74 1.17696e-11 -666.413 -3810.78 8.11149e-12 -677.081 -3915.96 3.14358e-12 -693.5 -4018.62 4.89755e-12 -714.56 -4119 -3.06564e-12 -739.342 -4217.34 -6.43848e-12 -767.075 -4313.83 -8.71442e-12 -797.112 -4408.6 -1.28019e-11 -828.904 -4501.81 -1.46327e-11 -861.982 -4593.57 -5.30732e-12 -895.946 -4683.96 -1.39238e-11 -930.451 -4773.09 -9.68368e-12 -965.199 -4861.02 -2.0448e-11 -999.931 -4947.82 -2.23899e-11 -1008.36 -4978.38 -3.10687e-11 -992.535 -4953.13 -2.47612e-11 -979.061 -4927.43 -2.2311e-11 -967.734 -4901.32 -2.45137e-11 -958.373 -4874.84 -2.59605e-11 -950.817 -4848.03 -3.34365e-11 -944.92 -4820.93 -3.44828e-11 -940.551 -4793.56 -2.96557e-11 -937.593 -4765.95 -3.04112e-11 -935.938 -4738.13 -3.16839e-11 -935.491 -4710.13 -3.80576e-11 -936.163 -4681.95 -3.83961e-11 -937.875 -4653.62 -2.90766e-11 -940.551 -4625.16 -2.51551e-11 -944.127 -4596.58 -3.07791e-11 -525.542 -3727.41 2.88428e-11 -498.635 -3832.07 2.26197e-11 -483.402 -3933.84 1.70689e-11 -477.696 -4033.1 9.10332e-12 -479.78 -4130.15 7.62008e-12 -488.24 -4225.26 4.12606e-12 -501.909 -4318.63 7.4868e-12 -519.819 -4410.43 2.59405e-13 -541.16 -4500.81 -6.59088e-12 -565.249 -4589.89 -4.16911e-12 -591.505 -4677.77 -1.1755e-12 -619.436 -4764.56 -1.24091e-11 -648.615 -4850.31 -5.87252e-12 -678.678 -4935.11 -2.11736e-11 -709.308 -5019.01 -1.36087e-11 -716.093 -5046.3 -2.28462e-11 -701.092 -5017.33 -2.50341e-11 -688.952 -4987.99 -1.94813e-11 -679.436 -4958.3 -2.06347e-11 -672.333 -4928.32 -1.59808e-11 -667.454 -4898.08 -3.09653e-11 -664.632 -4867.6 -1.97498e-11 -663.716 -4836.91 -2.7307e-11 -664.568 -4806.03 -2.88903e-11 -667.067 -4774.99 -2.44291e-11 -671.101 -4743.81 -3.62163e-11 -676.568 -4712.5 -3.18376e-11 -683.378 -4681.08 -4.2908e-11 -691.446 -4649.56 -2.88727e-11 -700.694 -4617.96 -3.45057e-11 -387.758 -3868.05 4.19061e-11 -335.456 -3963.76 3.37114e-11 -298.546 -4057.15 2.67165e-11 -274.203 -4148.55 1.55285e-11 -260.173 -4238.22 1.15295e-11 -254.639 -4326.38 7.40835e-12 -256.118 -4413.22 2.91385e-12 -263.39 -4498.86 4.12265e-12 -275.44 -4583.45 -4.84248e-12 -291.419 -4667.07 -7.5464e-12 -310.61 -4749.82 -1.003e-11 -332.407 -4831.76 -2.45206e-11 -356.289 -4912.96 -1.78307e-11 -381.811 -4993.48 -1.57626e-11 -408.587 -5073.35 -2.63135e-11 -414.115 -5096.43 -2.79408e-11 -400.438 -5062.94 -2.95832e-11 -390.203 -5029.18 -3.06861e-11 -383.135 -4995.18 -3.24986e-11 -378.99 -4960.95 -4.05998e-11 -377.552 -4926.54 -3.50169e-11 -378.627 -4891.97 -2.36331e-11 -382.043 -4857.24 -4.85809e-11 -387.644 -4822.39 -4.35945e-11 -395.291 -4787.43 -4.9797e-11 -404.856 -4752.37 -3.99158e-11 -416.226 -4717.23 -4.56169e-11 -429.297 -4682.01 -5.62209e-11 -443.974 -4646.73 -4.20898e-11 -460.172 -4611.4 -5.20707e-11 -256.903 -4015.62 5.71552e-11 -174.603 -4099.38 4.78517e-11 -112.491 -4181.72 3.71807e-11 -66.8013 -4262.85 2.95178e-11 -34.5759 -4342.95 2.43945e-11 -13.4599 -4422.17 2.23246e-11 -1.55496 -4500.62 9.58194e-12 2.68552 -4578.39 5.644e-12 0.534556 -4655.55 -2.47829e-12 -6.9508 -4732.18 -1.00113e-11 -18.8856 -4808.31 -8.4671e-12 -34.5235 -4884.01 -1.53076e-11 -53.2308 -4959.3 -9.13115e-12 -74.4659 -5034.22 -2.80913e-11 -97.7634 -5108.8 -2.99069e-11 -102.555 -5126.58 -1.58594e-11 -90.8464 -5087.68 -2.53416e-11 -83.2383 -5048.63 -2.73427e-11 -79.4141 -5009.45 -2.87692e-11 -79.0946 -4970.15 -3.69673e-11 -82.0328 -4930.75 -4.44176e-11 -88.0089 -4891.26 -4.52948e-11 -96.8274 -4851.7 -3.43786e-11 -108.313 -4812.07 -4.12946e-11 -122.309 -4772.38 -5.31314e-11 -138.673 -4732.65 -5.34893e-11 -157.278 -4692.87 -4.89908e-11 -178.009 -4653.06 -2.98712e-11 -200.76 -4613.22 -5.00868e-11 -225.436 -4573.35 -5.06446e-11 -136.064 -4173.2 7.47349e-11 -17.8474 -4241.04 6.28453e-11 73.8743 -4308.87 5.39159e-11 144.21 -4376.71 4.46897e-11 197.098 -4444.54 4.05436e-11 235.627 -4512.38 3.42979e-11 262.248 -4580.21 2.87024e-11 278.936 -4648.05 1.39519e-11 287.296 -4715.88 1.43945e-11 288.649 -4783.72 1.03683e-11 284.089 -4851.55 1.10951e-11 274.534 -4919.39 3.2852e-12 260.756 -4987.22 4.35385e-12 243.411 -5055.06 -6.80589e-12 223.058 -5122.89 6.59724e-12 218.314 -5134.15 -1.18635e-11 227.238 -5088.84 -1.42622e-11 231.316 -5043.53 -1.65338e-11 230.911 -4998.22 -1.86419e-11 226.34 -4952.91 -2.713e-11 217.883 -4907.6 -2.24921e-11 205.787 -4862.29 -1.82272e-11 190.272 -4816.98 -3.17048e-11 171.532 -4771.67 -2.18865e-11 149.742 -4726.36 -2.35705e-11 125.059 -4681.05 -3.5569e-11 97.6222 -4635.73 -3.67245e-11 67.5591 -4590.42 -2.81126e-11 34.9838 -4545.11 -3.88607e-11 -8.49171e-13 -4499.8 -3.98516e-11 -4173.28 -136.066 2.14134e-11 -4241.12 -17.8477 2.09541e-12 -4308.95 73.8756 -1.76208e-11 -4376.79 144.212 -3.28377e-11 -4444.62 197.102 -4.49324e-11 -4512.46 235.631 -5.82259e-11 -4580.3 262.253 -7.52057e-11 -4648.13 278.941 -7.60799e-11 -4715.97 287.301 -9.07116e-11 -4783.81 288.654 -9.50845e-11 -4851.64 284.094 -1.12199e-10 -4919.48 274.539 -1.15248e-10 -4987.31 260.761 -1.26326e-10 -5055.15 243.415 -1.16262e-10 -5122.99 223.062 -1.30418e-10 -5134.25 218.318 -1.42466e-10 -5088.94 227.242 -1.37598e-10 -5043.63 231.32 -1.40242e-10 -4998.31 230.915 -1.42725e-10 -4953 226.344 -1.51583e-10 -4907.69 217.887 -1.47246e-10 -4862.38 205.791 -1.55339e-10 -4817.07 190.275 -1.51268e-10 -4771.76 171.535 -1.58684e-10 -4726.44 149.745 -1.49443e-10 -4681.13 125.061 -1.72088e-10 -4635.82 97.624 -1.53039e-10 -4590.51 67.5604 -1.64397e-10 -4545.2 34.9845 -1.65641e-10 -4499.88 5.66125e-13 -1.66843e-10 -4015.69 -256.908 1.25957e-11 -4099.46 -174.606 -4.57747e-12 -4181.79 -112.493 -1.956e-11 -4262.93 -66.8025 -3.27101e-11 -4343.03 -34.5766 -4.13662e-11 -4422.25 -13.4601 -5.60118e-11 -4500.7 -1.55499 -6.49863e-11 -4578.47 2.68557 -7.12595e-11 -4655.64 0.534566 -7.99313e-11 -4732.26 -6.95092 -8.38388e-11 -4808.4 -18.886 -9.97077e-11 -4884.1 -34.5242 -1.0203e-10 -4959.39 -53.2318 -1.03998e-10 -5034.31 -74.4673 -1.13692e-10 -5108.89 -97.7652 -1.18847e-10 -5126.67 -102.557 -1.22622e-10 -5087.77 -90.8481 -1.32695e-10 -5048.72 -83.2399 -1.34948e-10 -5009.54 -79.4156 -1.29714e-10 -4970.24 -79.0961 -1.25249e-10 -4930.84 -82.0343 -1.27536e-10 -4891.35 -88.0105 -1.3552e-10 -4851.79 -96.8292 -1.3715e-10 -4812.16 -108.315 -1.33056e-10 -4772.47 -122.311 -1.29329e-10 -4732.73 -138.676 -1.36172e-10 -4692.95 -157.281 -1.37687e-10 -4653.14 -178.012 -1.38922e-10 -4613.3 -200.764 -1.40148e-10 -4573.44 -225.441 -1.41316e-10 -3868.12 -387.766 3.63169e-12 -3963.84 -335.462 -1.16525e-11 -4057.22 -298.551 -2.28029e-11 -4148.62 -274.208 -3.1644e-11 -4238.3 -260.178 -3.93482e-11 -4326.46 -254.644 -4.95746e-11 -4413.3 -256.123 -6.41502e-11 -4498.95 -263.395 -6.86481e-11 -4583.53 -275.445 -8.04803e-11 -4667.16 -291.424 -7.37228e-11 -4749.91 -310.616 -8.42924e-11 -4831.85 -332.413 -8.60012e-11 -4913.05 -356.296 -9.5939e-11 -4993.57