<?xml version="1.0"?> 
<VTKFile type="StructuredGrid" version="0.1"> 
<StructuredGrid WholeExtent="0 29 0 29 0 29"> 
<Piece Extent="0 29 0 29 0 29"> 
<PointData>
<DataArray type="Float32" Name="hfield" format="ascii" NumberOfComponents="3"> 
46.9491 3.06954e-12 -2.34195e-11 45.3141 1.60289 -1.91349e-11 43.6803 3.20692 -1.48788e-11 42.0476 4.8121 -1.03739e-11 40.4161 6.41843 -5.45697e-12 38.7857 8.0259 -7.95808e-13 37.1564 9.63452 3.58114e-12 35.5283 11.2443 8.07177e-12 33.9013 12.8552 1.23919e-11 32.2755 14.4673 1.72804e-11 30.6509 16.0805 2.16005e-11 29.0273 17.6948 2.6148e-11 27.405 19.3103 3.08091e-11 25.7837 20.9269 3.54703e-11 24.1637 22.5447 3.97904e-11 22.5447 24.1637 4.39258e-11 20.9269 25.7837 4.75779e-11 19.3103 27.405 5.16138e-11 17.6948 29.0273 5.54792e-11 16.0805 30.6509 5.93445e-11 14.4673 32.2755 6.33236e-11 12.8552 33.9013 6.69615e-11 11.2443 35.5283 7.08269e-11 9.63452 37.1564 7.48059e-11 8.0259 38.7857 7.86713e-11 6.41843 40.4161 8.23093e-11 4.8121 42.0476 8.61746e-11 3.20692 43.6803 9.02673e-11 1.60289 45.3141 9.39053e-11 -3.17186e-11 46.9491 9.77707e-11 45.3141 -1.60289 -2.58202e-11 43.6814 2.45159e-12 -2.13568e-11 42.0497 1.60395 -1.68792e-11 40.419 3.20898 -1.26503e-11 38.7895 4.81507 -8.05187e-12 37.161 6.42222 -3.5103e-12 35.5335 8.03044 1.03126e-12 33.9072 9.63974 5.45914e-12 32.2819 11.2501 9.77332e-12 30.6576 12.8615 1.44286e-11 29.0345 14.474 1.89133e-11 27.4124 16.0876 2.32843e-11 25.7913 17.7022 2.78827e-11 24.1714 19.3179 3.23675e-11 22.5525 20.9347 3.66248e-11 20.9347 22.5525 4.09919e-11 19.3179 24.1714 4.47225e-11 17.7022 25.7913 4.87872e-11 16.0876 27.4124 5.24824e-11 14.474 29.0345 5.64618e-11 12.8615 30.6576 6.03843e-11 11.2501 32.2819 6.41932e-11 9.63974 33.9072 6.8002e-11 8.03044 35.5335 7.16972e-11 6.42222 37.161 7.53923e-11 4.81507 38.7895 7.93149e-11 3.20898 40.419 8.34648e-11 1.60395 42.0497 8.76147e-11 -3.01803e-11 43.6814 9.10825e-11 -1.60289 45.3141 9.50051e-11 43.6803 -3.20692 -2.82209e-11 42.0497 -1.60395 -2.40192e-11 40.42 2.21601e-12 -1.93912e-11 38.7914 1.60494 -1.47277e-11 37.1637 3.21087 -1.04478e-11 35.537 4.81779 -5.969e-12 33.9113 6.4257 -1.57546e-12 32.2866 8.03459 2.78966e-12 30.6629 9.64448 7.21163e-12 29.0402 11.2553 1.16904e-11 27.4184 12.8672 1.62261e-11 25.7977 14.4801 2.04207e-11 24.1779 16.0939 2.507e-11 22.5591 17.7087 2.9492e-11 20.9413 19.3245 3.39139e-11 19.3245 20.9413 3.80366e-11 17.7087 22.5591 4.15829e-11 16.0939 24.1779 4.55627e-11 14.4801 25.7977 4.95424e-11 12.8672 27.4184 5.3579e-11 11.2553 29.0402 5.73313e-11 9.64448 30.6629 6.10837e-11 8.03459 32.2866 6.50634e-11 6.4257 33.9113 6.88158e-11 4.81779 35.537 7.27955e-11 3.21087 37.1637 7.67752e-11 1.60494 38.7914 8.05276e-11 -2.91678e-11 40.42 8.45073e-11 -1.60395 42.0497 8.80323e-11 -3.20692 43.6803 9.24668e-11 42.0476 -4.8121 -3.03943e-11 40.419 -3.20898 -2.59996e-11 38.7914 -1.60494 -2.1619e-11 37.1646 2.08544e-12 -1.73735e-11 35.5387 1.60585 -1.28153e-11 33.9138 3.21261 -8.59823e-12 32.2898 4.82028 -4.29587e-12 30.6666 6.42886 -1.07186e-13 29.0444 8.03835 4.59309e-12 27.4231 9.64875 8.89545e-12 25.8027 11.2601 1.30273e-11 24.1832 12.8723 1.76707e-11 22.5647 14.4854 2.20299e-11 20.947 16.0994 2.62755e-11 19.3302 17.7144 3.0862e-11 17.7144 19.3302 3.49819e-11 16.0994 20.947 3.8756e-11 14.4854 22.5647 4.26792e-11 12.8723 24.1832 4.65456e-11 11.2601 25.8027 5.05825e-11 9.64875 27.4231 5.41647e-11 8.03835 29.0444 5.82016e-11 6.42886 30.6666 6.22385e-11 4.82028 32.2898 6.60481e-11 3.21261 33.9138 6.99713e-11 1.60585 35.5387 7.35535e-11 -2.84857e-11 37.1646 7.78178e-11 -1.60494 38.7914 8.16273e-11 -3.20898 40.419 8.56642e-11 -4.8121 42.0476 8.92464e-11 40.4161 -6.41843 -3.2795e-11 38.7895 -4.81507 -2.84701e-11 37.1637 -3.21087 -2.43868e-11 35.5387 -1.60585 -1.98062e-11 33.9146 1.62714e-12 -1.55239e-11 32.2913 1.60668 -1.10854e-11 30.6689 3.21419 -6.90259e-12 29.0473 4.82254 -2.60613e-12 27.4265 6.43171 1.86086e-12 25.8065 8.04171 6.15731e-12 24.1874 9.65254 1.03969e-11 22.5691 11.2642 1.48639e-11 20.9516 12.8767 1.8933e-11 19.335 14.49 2.32863e-11 17.7192 16.1042 2.75828e-11 16.1042 17.7192 3.17851e-11 14.49 19.335 3.59006e-11 12.8767 20.9516 3.9682e-11 11.2642 22.5691 4.35488e-11 9.65254 24.1874 4.76429e-11 8.04171 25.8065 5.15665e-11 6.43171 27.4265 5.53195e-11 4.82254 29.0473 5.92999e-11 3.21419 30.6689 6.32804e-11 1.60668 32.2913 6.72608e-11 -2.80664e-11 33.9146 7.12412e-11 -1.60585 35.5387 7.5108e-11 -3.21087 37.1637 7.87473e-11 -4.81507 38.7895 8.30688e-11 -6.41843 40.4161 8.64808e-11 38.7857 -8.0259 -3.49684e-11 37.161 -6.42222 -3.06565e-11 35.537 -4.81779 -2.68136e-11 33.9138 -3.21261 -2.2182e-11 32.2913 -1.60668 -1.7863e-11 30.6696 1.92557e-12 -1.39135e-11 29.0487 1.60743 -9.42404e-12 27.4285 3.21562 -5.2756e-12 25.809 4.82455 -8.14527e-13 24.1903 6.43424 3.30549e-12 22.5724 8.04467 7.59604e-12 20.9552 9.65586 1.18866e-11 19.3388 11.2678 1.61771e-11 17.7231 12.8805 2.04108e-11 16.1081 14.4939 2.45308e-11 14.4939 16.1081 2.87376e-11 12.8805 17.7231 3.28747e-11 11.2678 19.3388 3.66849e-11 9.65586 20.9552 4.06088e-11 8.04467 22.5724 4.45327e-11 6.43424 24.1903 4.85704e-11 4.82455 25.809 5.24374e-11 3.21562 27.4285 5.63614e-11 1.60743 29.0487 6.01716e-11 -2.72635e-11 30.6696 6.43229e-11 -1.60668 32.2913 6.82468e-11 -3.21261 33.9138 7.19434e-11 -4.81779 35.537 7.60947e-11 -6.42222 37.161 7.97912e-11 -8.0259 38.7857 8.39425e-11 37.1564 -9.63452 -3.74828e-11 35.5335 -8.03044 -3.32195e-11 33.9113 -6.4257 -2.88709e-11 32.2898 -4.82028 -2.47283e-11 30.6689 -3.21419 -2.02874e-11 29.0487 -1.60743 -1.6287e-11 27.4292 2.15294e-12 -1.19739e-11 25.8103 1.6081 -7.85981e-12 24.1921 3.21688 -3.66044e-12 22.5746 4.82633 5.67351e-13 20.9578 6.43645 4.79514e-12 19.3416 8.04724 9.02294e-12 17.7261 9.65871 1.33076e-11 16.1113 11.2708 1.74217e-11 14.4971 12.8837 2.16495e-11 12.8837 14.4971 2.57895e-11 11.2708 16.1113 2.98061e-11 9.65871 17.7261 3.36025e-11 8.04724 19.3416 3.7612e-11 6.43645 20.9578 4.15363e-11 4.82633 22.5746 4.54606e-11 3.21688 24.1921 4.94417e-11 1.6081 25.8103 5.34228e-11 -2.66738e-11 27.4292 5.74039e-11 -1.60743 29.0487 6.1385e-11 -3.21419 30.6689 6.52524e-11 -4.82028 32.2898 6.90062e-11 -6.4257 33.9113 7.33284e-11 -8.03044 35.5335 7.74232e-11 -9.63452 37.1564 8.14043e-11 35.5283 -11.2443 -3.97698e-11 33.9072 -9.63974 -3.54449e-11 32.2866 -8.03459 -3.12266e-11 30.6666 -6.42886 -2.71184e-11 29.0473 -4.82254 -2.28397e-11 27.4285 -3.21562 -1.86604e-11 25.8103 -1.6081 -1.46375e-11 24.1927 2.4869e-12 -1.04156e-11 22.5757 1.6087 -6.36425e-12 20.9593 3.21799 -2.17079e-12 19.3435 4.82787 2.10794e-12 17.7283 6.43835 6.15929e-12 16.1137 8.04942 1.03812e-11 14.4996 9.66108 1.45462e-11 12.8862 11.2733 1.87112e-11 11.2733 12.8862 2.27419e-11 9.66108 14.4996 2.68086e-11 8.04942 16.1137 3.06906e-11 6.43835 17.7283 3.45868e-11 4.82787 19.3435 3.85967e-11 3.21799 20.9593 4.25781e-11 1.6087 22.5757 4.64459e-11 -2.65246e-11 24.1927 5.04842e-11 -1.6081 25.8103 5.45225e-11 -3.21562 27.4285 5.83334e-11 -4.82254 29.0473 6.23717e-11 -6.42886 30.6666 6.62964e-11 -8.03459 32.2866 7.0221e-11 -9.63974 33.9072 7.42593e-11 -11.2443 35.5283 7.80702e-11 33.9013 -12.8552 -4.18295e-11 32.2819 -11.2501 -3.77734e-11 30.6629 -9.64448 -3.35894e-11 29.0444 -8.03835 -2.96363e-11 27.4265 -6.43171 -2.55625e-11 25.809 -4.82455 -2.13749e-11 24.1921 -3.21688 -1.72726e-11 22.5757 -1.6087 -1.31135e-11 20.9598 2.17426e-12 -8.98279e-12 19.3445 1.60921 -4.93735e-12 17.7296 3.21894 -8.06642e-13 16.1152 4.82918 3.18196e-12 14.5014 6.43993 7.39793e-12 12.8881 8.0512 1.15571e-11 11.2753 9.66298 1.56025e-11 9.66298 11.2753 1.96197e-11 8.0512 12.8881 2.36548e-11 6.43993 14.5014 2.76366e-11 4.82918 16.1152 3.16468e-11 3.21894 17.7296 3.56002e-11 1.60921 19.3445 3.96957e-11 -2.6148e-11 20.9598 4.36207e-11 -1.6087 22.5757 4.75456e-11 -3.21688 24.1921 5.16411e-11 -4.82455 25.809 5.56229e-11 -6.43171 27.4265 5.9491e-11 -8.03835 29.0444 6.34729e-11 -9.64448 30.6629 6.75684e-11 -11.2501 32.2819 7.13228e-11 -12.8552 33.9013 7.53046e-11 32.2755 -14.4673 -4.42302e-11 30.6576 -12.8615 -4.00805e-11 29.0402 -11.2553 -3.60446e-11 27.4231 -9.64875 -3.20121e-11 25.8065 -8.04171 -2.79016e-11 24.1903 -6.43424 -2.38336e-11 22.5746 -4.82633 -1.98793e-11 20.9593 -3.21799 -1.58398e-11 19.3445 -1.60921 -1.17719e-11 17.73 2.65743e-12 -7.61864e-12 16.116 1.60965 -3.66438e-12 14.5025 3.21973 4.03574e-13 12.8893 4.83024 4.47153e-12 11.2767 6.44119 8.51106e-12 9.6644 8.05258 1.26074e-11 8.05258 9.6644 1.65721e-11 6.44119 11.2767 2.06288e-11 4.83024 12.8893 2.4611e-11 3.21973 14.5025 2.86784e-11 1.60965 16.116 3.26606e-11 -2.58709e-11 17.73 3.66427e-11 -1.60921 19.3445 4.06249e-11 -3.21799 20.9593 4.4607e-11 -4.82633 22.5746 4.85892e-11 -6.43424 24.1903 5.25713e-11 -8.04171 25.8065 5.6724e-11 -9.64875 27.4231 6.08767e-11 -11.2553 29.0402 6.46883e-11 -12.8615 30.6576 6.87273e-11 -14.4673 32.2755 7.288e-11 30.6509 -16.0805 -4.65172e-11 29.0345 -14.474 -4.2473e-11 27.4184 -12.8672 -3.84358e-11 25.8027 -11.2601 -3.44519e-11 24.1874 -9.65254 -3.04396e-11 22.5724 -8.04467 -2.65197e-11 20.9578 -6.43645 -2.24292e-11 19.3435 -4.82787 -1.84809e-11 17.7296 -3.21894 -1.44757e-11 16.116 -1.60965 -1.03852e-11 14.5028 2.55795e-12 -6.40843e-12 12.89 1.61 -2.40323e-12 11.2775 3.22036 1.60197e-12 9.66535 4.83107 5.55032e-12 8.05357 6.44214 9.55552e-12 6.44214 8.05357 1.36666e-11 4.83107 9.66535 1.76882e-11 3.22036 11.2775 2.16707e-11 1.61 12.89 2.571e-11 -2.57074e-11 14.5028 2.97494e-11 -1.60965 16.116 3.37035e-11 -3.21894 17.7296 3.7686e-11 -4.82787 19.3435 4.1839e-11 -6.43645 20.9578 4.58783e-11 -8.04467 22.5724 4.97471e-11 -9.65254 24.1874 5.38433e-11 -11.2601 25.8027 5.76553e-11 -12.8672 27.4184 6.16946e-11 -14.474 29.0345 6.57908e-11 -16.0805 30.6509 6.9887e-11 29.0273 -17.6948 -4.87474e-11 27.4124 -16.0876 -4.49631e-11 25.7977 -14.4801 -4.08448e-11 24.1832 -12.8723 -3.67851e-11 22.5691 -11.2642 -3.29848e-11 20.9552 -9.65586 -2.91347e-11 19.3416 -8.04724 -2.5107e-11 17.7283 -6.43835 -2.11503e-11 16.1152 -4.82918 -1.71511e-11 14.5025 -3.21973 -1.32512e-11 12.89 -1.61 -9.23774e-12 11.2778 2.64322e-12 -5.2953e-12 9.66582 1.61028 -1.29601e-12 8.05416 3.22083 2.61801e-12 6.44277 4.83167 6.58888e-12 4.83167 6.44277 1.06119e-11 3.22083 8.05416 1.46196e-11 1.61028 9.66582 1.86309e-11 -2.55085e-11 11.2778 2.26564e-11 -1.61 12.89 2.67529e-11 -3.21973 14.5025 3.07642e-11 -4.82918 16.1152 3.47186e-11 -6.43835 17.7283 3.89573e-11 -8.04724 19.3416 4.28264e-11 -9.65586 20.9552 4.69798e-11 -11.2642 22.5691 5.10195e-11 -12.8723 24.1832 5.50592e-11 -14.4801 25.7977 5.89283e-11 -16.0876 27.4124 6.31385e-11 -17.6948 29.0273 6.70646e-11 27.405 -19.3103 -5.1205e-11 25.7913 -17.7022 -4.72951e-11 24.1779 -16.0939 -4.31614e-11 22.5647 -14.4854 -3.93705e-11 20.9516 -12.8767 -3.54944e-11 19.3388 -11.2678 -3.15721e-11 17.7261 -9.65871 -2.77421e-11 16.1137 -8.04942 -2.37772e-11 14.5014 -6.43993 -1.98264e-11 12.8893 -4.83024 -1.59325e-11 11.2775 -3.22036 -1.20813e-11 9.66582 -1.61028 -8.15894e-12 8.05436 2.58638e-12 -4.25083e-12 6.44309 1.61048 -3.42722e-13 4.83202 3.22115 3.59381e-12 3.22115 4.83202 7.55367e-12 1.61048 6.44309 1.16221e-11 -2.53841e-11 8.05436 1.5648e-11 -1.61028 9.66582 1.97306e-11 -3.22036 11.2775 2.37422e-11 -4.83024 12.8893 2.77396e-11 -6.43993 14.5014 3.18365e-11 -8.04942 16.1137 3.59618e-11 -9.65871 17.7261 4.00019e-11 -11.2678 19.3388 4.40419e-11 -12.8767 20.9516 4.79114e-11 -14.4854 22.5647 5.20651e-11 -16.0939 24.1779 5.63325e-11 -17.7022 25.7913 6.00315e-11 -19.3103 27.405 6.42989e-11 25.7837 -20.9269 -5.36057e-11 24.1714 -19.3179 -4.97417e-11 22.5591 -17.7087 -4.58155e-11 20.947 -16.0994 -4.19915e-11 19.335 -14.49 -3.78975e-11 17.7231 -12.8805 -3.42866e-11 16.1113 -11.2708 -3.02281e-11 14.4996 -9.66108 -2.63045e-11 12.8881 -8.0512 -2.26155e-11 11.2767 -6.44119 -1.8763e-11 9.66535 -4.83107 -1.48324e-11 8.05416 -3.22083 -1.10368e-11 6.44309 -1.61048 -7.14881e-12 4.83214 2.44427e-12 -3.30346e-12 3.22131 1.61059 5.56113e-13 1.61059 3.22131 4.53362e-12 -2.52456e-11 4.83214 8.56423e-12 -1.61048 6.44309 1.26011e-11 -3.22083 8.05416 1.6677e-11 -4.83107 9.66535 2.07103e-11 -6.44119 11.2767 2.4843e-11 -8.0512 12.8881 2.89687e-11 -9.66108 14.4996 3.28953e-11 -11.2708 16.1113 3.69926e-11 -12.8805 17.7231 4.10472e-11 -14.49 19.335 4.5116e-11 -16.0994 20.947 4.927e-11 -17.7087 22.5591 5.3481e-11 -19.3179 24.1714 5.75498e-11 -20.9269 25.7837 6.15901e-11 24.1637 -22.5447 -5.57009e-11 22.5525 -20.9347 -5.19241e-11 20.9413 -19.3245 -4.82965e-11 19.3302 -17.7144 -4.44144e-11 17.7192 -16.1042 -4.03183e-11 16.1081 -14.4939 -3.66653e-11 14.4971 -12.8837 -3.29485e-11 12.8862 -11.2733 -2.90309e-11 11.2753 -9.66298 -2.52696e-11 9.6644 -8.05258 -2.15047e-11 8.05357 -6.44214 -1.76333e-11 6.44277 -4.83167 -1.38756e-11 4.83202 -3.22115 -1.00859e-11 3.22131 -1.61059 -6.2784e-12 1.61063 2.13513e-12 -2.46027e-12 -2.5123e-11 1.61063 1.48382e-12 -1.61059 3.22131 5.56318e-12 -3.22115 4.83202 9.66786e-12 -4.83167 6.44277 1.36979e-11 -6.44214 8.05357 1.77529e-11 -8.05258 9.6644 2.19179e-11 -9.66298 11.2753 2.59977e-11 -11.2733 12.8862 3.00278e-11 -12.8837 14.4971 3.41183e-11 -14.4939 16.1081 3.81874e-11 -16.1042 17.7192 4.23419e-11 -17.7144 19.3302 4.6475e-11 -19.3245 20.9413 5.03807e-11 -20.9347 22.5525 5.4528e-11 -22.5447 24.1637 5.87677e-11 22.5447 -24.1637 -5.8165e-11 20.9347 -22.5525 -5.43663e-11 19.3245 -20.9413 -5.07185e-11 17.7144 -19.3302 -4.69358e-11 16.1042 -17.7192 -4.30127e-11 14.4939 -16.1081 -3.92557e-11 12.8837 -14.4971 -3.55183e-11 11.2733 -12.8862 -3.16938e-11 9.66298 -11.2753 -2.79066e-11 8.05258 -9.6644 -2.41265e-11 6.44214 -8.05357 -2.03322e-11 4.83167 -6.44277 -1.65308e-11 3.22115 -4.83202 -1.2804e-11 1.61059 -3.22131 -9.0381e-12 -2.49276e-11 -1.61063 -5.23315e-12 -1.61063 1.67955e-12 -1.30651e-12 -3.22131 1.61059 2.8022e-12 -4.83202 3.22115 6.8674e-12 -6.44277 4.83167 1.09779e-11 -8.05357 6.44214 1.50777e-11 -9.6644 8.05258 1.91314e-11 -11.2753 9.66298 2.32596e-11 -12.8862 11.2733 2.73417e-11 -14.4971 12.8837 3.14273e-11 -16.1081 14.4939 3.52713e-11 -17.7192 16.1042 3.95701e-11 -19.3302 17.7144 4.38334e-11 -20.9413 19.3245 4.79687e-11 -22.5525 20.9347 5.19904e-11 -24.1637 22.5447 5.6005e-11 20.9269 -25.7837 -6.06235e-11 19.3179 -24.1714 -5.67892e-11 17.7087 -22.5591 -5.29905e-11 16.0994 -20.947 -4.93721e-11 14.49 -19.335 -4.55813e-11 12.8805 -17.7231 -4.18119e-11 11.2708 -16.1113 -3.80851e-11 9.66108 -14.4996 -3.43192e-11 8.0512 -12.8881 -3.04752e-11 6.44119 -11.2767 -2.66951e-11 4.83107 -9.66535 -2.2915e-11 3.22083 -8.05416 -1.90852e-11 1.61048 -6.44309 -1.53619e-11 -2.46523e-11 -4.83214 -1.15534e-11 -1.61059 -3.22131 -7.75913e-12 -3.22131 -1.61059 -3.84848e-12 -4.83214 1.22924e-12 2.62901e-13 -6.44309 1.61048 4.37694e-12 -8.05416 3.22083 8.49099e-12 -9.66535 4.83107 1.25979e-11 -11.2767 6.44119 1.66267e-11 -12.8881 8.0512 2.06768e-11 -14.4996 9.66108 2.48832e-11 -16.1113 11.2708 2.89759e-11 -17.7231 12.8805 3.3026e-11 -19.335 14.49 3.73461e-11 -20.947 16.0994 4.11831e-11 -22.5591 17.7087 4.49916e-11 -24.1714 19.3179 4.9198e-11 -25.7837 20.9269 5.33191e-11 19.3103 -27.405 -6.33804e-11 17.7022 -25.7913 -5.94476e-11 16.0939 -24.1779 -5.57101e-11 14.4854 -22.5647 -5.19123e-11 12.8767 -20.9516 -4.82459e-11 11.2678 -19.3388 -4.43947e-11 9.65871 -17.7261 -4.05223e-11 8.04942 -16.1137 -3.67777e-11 6.43993 -14.5014 -3.30402e-11 4.83024 -12.8893 -2.92601e-11 3.22036 -11.2775 -2.54374e-11 1.61028 -9.66582 -2.16431e-11 -2.46239e-11 -8.05436 -1.78488e-11 -1.61048 -6.44309 -1.40119e-11 -3.22115 -4.83202 -1.02602e-11 -4.83202 -3.22115 -6.33271e-12 -6.44309 -1.61048 -2.29505e-12 -8.05436 8.02913e-13 1.84741e-12 -9.66582 1.61028 5.86908e-12 -11.2775 3.22036 1.00329e-11 -12.8893 4.83024 1.40403e-11 -14.5014 6.43993 1.82183e-11 -16.1137 8.04942 2.22826e-11 -17.7261 9.65871 2.62901e-11 -19.3388 11.2678 3.04397e-11 -20.9516 12.8767 3.46745e-11 -22.5647 14.4854 3.87104e-11 -24.1779 16.0939 4.25757e-11 -25.7913 17.7022 4.69527e-11 -27.405 19.3103 5.08749e-11 17.6948 -29.0273 -6.59384e-11 16.0876 -27.4124 -6.2057e-11 14.4801 -25.7977 -5.83995e-11 12.8723 -24.1832 -5.4456e-11 11.2642 -22.5691 -5.05622e-11 9.65586 -20.9552 -4.69669e-11 8.04724 -19.3416 -4.30873e-11 6.43835 -17.7283 -3.93214e-11 4.82918 -16.1152 -3.56408e-11 3.21973 -14.5025 -3.1747e-11 1.61 -12.89 -2.79385e-11 -2.5107e-11 -11.2778 -2.41869e-11 -1.61028 -9.66582 -2.04068e-11 -3.22083 -8.05416 -1.65699e-11 -4.83167 -6.44277 -1.28182e-11 -6.44277 -4.83167 -8.86047e-12 -8.05416 -3.22083 -4.76774e-12 -9.66582 -1.61028 -6.82121e-13 -11.2778 3.12639e-13 3.38218e-12 -12.89 1.61 7.47491e-12 -14.5025 3.21973 1.15392e-11 -16.1152 4.82918 1.56604e-11 -17.7283 6.43835 1.96678e-11 -19.3416 8.04724 2.37605e-11 -20.9552 9.65586 2.79101e-11 -22.5691 11.2642 3.1946e-11 -24.1832 12.8723 3.60387e-11 -25.7977 14.4801 4.01883e-11 -27.4124 16.0876 4.4281e-11 -29.0273 17.6948 4.83737e-11 16.0805 -30.6509 -6.85532e-11 14.474 -29.0345 -6.47091e-11 12.8672 -27.4184 -6.08011e-11 11.2601 -25.8027 -5.72982e-11 9.65254 -24.1874 -5.33618e-11 8.04467 -22.5724 -4.96243e-11 6.43645 -20.9578 -4.56453e-11 4.82787 -19.3435 -4.1851e-11 3.21894 -17.7296 -3.81135e-11 1.60965 -16.116 -3.43334e-11 -2.55511e-11 -14.5028 -3.04965e-11 -1.61 -12.89 -2.67164e-11 -3.22036 -11.2775 -2.29647e-11 -4.83107 -9.66535 -1.9071e-11 -6.44214 -8.05357 -1.52909e-11 -8.05357 -6.44214 -1.14042e-11 -9.66535 -4.83107 -7.35412e-12 -11.2775 -3.22036 -3.21165e-12 -12.89 -1.61 8.2423e-13 -14.5028 8.52651e-14 4.9738e-12 -16.116 1.60965 9.06653e-12 -17.7296 3.21894 1.31877e-11 -19.3435 4.82787 1.72236e-11 -20.9578 6.43645 2.12594e-11 -22.5724 8.04467 2.5409e-11 -24.1874 9.65254 2.94449e-11 -25.8027 11.2601 3.36513e-11 -27.4184 12.8672 3.76303e-11 -29.0345 14.474 4.17231e-11 -30.6509 16.0805 4.58158e-11 14.4673 -32.2755 -7.10543e-11 12.8615 -30.6576 -6.73879e-11 11.2553 -29.0402 -6.3352e-11 9.64875 -27.4231 -5.94724e-11 8.04171 -25.8065 -5.59766e-11 6.43424 -24.1903 -5.2097e-11 4.82633 -22.5746 -4.83453e-11 3.21799 -20.9593 -4.43947e-11 1.60921 -19.3445 -4.06146e-11 -2.60059e-11 -17.73 -3.68061e-11 -1.60965 -16.116 -3.30544e-11 -3.21973 -14.5025 -2.92744e-11 -4.83024 -12.8893 -2.5409e-11 -6.44119 -11.2767 -2.17142e-11 -8.05258 -9.6644 -1.78488e-11 -9.6644 -8.05258 -1.38805e-11 -11.2767 -6.44119 -9.76286e-12 -12.8893 -4.83024 -5.74119e-12 -14.5025 -3.21973 -1.64846e-12 -16.116 -1.60965 2.38742e-12 -17.73 2.27374e-13 6.48015e-12 -19.3445 1.60921 1.05729e-11 -20.9593 3.21799 1.46088e-11 -22.5746 4.82633 1.85878e-11 -24.1903 6.43424 2.28511e-11 -25.8065 8.04171 2.69438e-11 -27.4231 9.64875 3.09228e-11 -29.0402 11.2553 3.50155e-11 -30.6576 12.8615 3.9222e-11 -32.2755 14.4673 4.33147e-11 12.8552 -33.9013 -7.34417e-11 11.2501 -32.2819 -6.97966e-11 9.64448 -30.6629 -6.60307e-11 8.03835 -29.0444 -6.22435e-11 6.43171 -27.4265 -5.84919e-11 4.82455 -25.809 -5.45697e-11 3.21688 -24.1921 -5.09033e-11 1.6087 -22.5757 -4.70095e-11 -2.70788e-11 -20.9598 -4.3201e-11 -1.60921 -19.3445 -3.93356e-11 -3.21894 -17.7296 -3.55271e-11 -4.82918 -16.1152 -3.17755e-11 -6.43993 -14.5014 -2.7967e-11 -8.0512 -12.8881 -2.42153e-11 -9.66298 -11.2753 -2.03499e-11 -11.2753 -9.66298 -1.64029e-11 -12.8881 -8.0512 -1.23066e-11 -14.5014 -6.43993 -8.29914e-12 -16.1152 -4.82918 -4.20641e-12 -17.7296 -3.21894 -1.13687e-13 -19.3445 -1.60921 4.03588e-12 -20.9598 -2.70006e-13 8.07177e-12 -22.5757 1.6087 1.22213e-11 -24.1921 3.21688 1.62572e-11 -25.809 4.82455 2.02363e-11 -27.4265 6.43171 2.4329e-11 -29.0444 8.03835 2.85354e-11 -30.6629 9.64448 3.24007e-11 -32.2819 11.2501 3.68345e-11 -33.9013 12.8552 4.05862e-11 11.2443 -35.5283 -7.62839e-11 9.63974 -33.9072 -7.24363e-11 8.03459 -32.2866 -6.84892e-11 6.42886 -30.6666 -6.47731e-11 4.82254 -29.0473 -6.09646e-11 3.21562 -27.4285 -5.70424e-11 1.6081 -25.8103 -5.33475e-11 -2.77893e-11 -24.1927 -4.96243e-11 -1.6087 -22.5757 -4.5759e-11 -3.21799 -20.9593 -4.19504e-11 -4.82787 -19.3435 -3.80851e-11 -6.43835 -17.7283 -3.42766e-11 -8.04942 -16.1137 -3.05818e-11 -9.66108 -14.4996 -2.66027e-11 -11.2733 -12.8862 -2.29079e-11 -12.8862 -11.2733 -1.89573e-11 -14.4996 -9.66108 -1.49356e-11 -16.1137 -8.04942 -1.07718e-11 -17.7283 -6.43835 -6.65068e-12 -19.3435 -4.82787 -2.67164e-12 -20.9593 -3.21799 1.42109e-12 -22.5757 -1.6087 5.51381e-12 -24.1927 -4.83169e-13 9.66338e-12 -25.8103 1.6081 1.36424e-11 -27.4285 3.21562 1.77351e-11 -29.0473 4.82254 2.17142e-11 -30.6666 6.42886 2.60343e-11 -32.2866 8.03459 3.00133e-11 -33.9072 9.63974 3.41061e-11 -35.5283 11.2443 3.83125e-11 9.63452 -37.1564 -7.86713e-11 8.03044 -35.5335 -7.46425e-11 6.4257 -33.9113 -7.12106e-11 4.82028 -32.2898 -6.75584e-11 3.21419 -30.6689 -6.35509e-11 1.60743 -29.0487 -5.9714e-11 -2.9047e-11 -27.4292 -5.60192e-11 -1.6081 -25.8103 -5.20117e-11 -3.21688 -24.1921 -4.82601e-11 -4.82633 -22.5746 -4.45652e-11 -6.43645 -20.9578 -4.05862e-11 -8.04724 -19.3416 -3.68345e-11 -9.65871 -17.7261 -3.31397e-11 -11.2708 -16.1113 -2.91607e-11 -12.8837 -14.4971 -2.5409e-11 -14.4971 -12.8837 -2.15081e-11 -16.1113 -11.2708 -1.74651e-11 -17.7261 -9.65871 -1.32161e-11 -19.3416 -8.04724 -9.20863e-12 -20.9578 -6.43645 -5.17275e-12 -22.5746 -4.82633 -1.02318e-12 -24.1921 -3.21688 3.06954e-12 -25.8103 -1.6081 7.04858e-12 -27.4292 -3.97904e-13 1.11413e-11 -29.0487 1.60743 1.5234e-11 -30.6689 3.21419 1.93268e-11 -32.2898 4.82028 2.36469e-11 -33.9113 6.4257 2.72848e-11 -35.5335 8.03044 3.13776e-11 -37.1564 9.63452 3.54703e-11 8.0259 -38.7857 -8.11724e-11 6.42222 -37.161 -7.76339e-11 4.81779 -35.537 -7.34417e-11 3.21261 -33.9138 -6.99458e-11 1.60668 -32.2913 -6.63078e-11 -3.02691e-11 -30.6696 -6.22435e-11 -1.60743 -29.0487 -5.85487e-11 -3.21562 -27.4285 -5.4456e-11 -4.82455 -25.809 -5.0818e-11 -6.43424 -24.1903 -4.69527e-11 -8.04467 -22.5724 -4.31442e-11 -9.65586 -20.9552 -3.94493e-11 -11.2678 -19.3388 -3.54703e-11 -12.8805 -17.7231 -3.16618e-11 -14.4939 -16.1081 -2.7967e-11 -16.1081 -14.4939 -2.38813e-11 -17.7231 -12.8805 -1.99805e-11 -19.3388 -11.2678 -1.58877e-11 -20.9552 -9.65586 -1.17666e-11 -22.5724 -8.04467 -7.61702e-12 -24.1903 -6.43424 -3.69482e-12 -25.809 -4.82455 4.54747e-13 -27.4285 -3.21562 4.54747e-12 -29.0487 -1.60743 8.75389e-12 -30.6696 -1.7053e-13 1.27329e-11 -32.2913 1.60668 1.6712e-11 -33.9138 3.21261 2.10321e-11 -35.537 4.81779 2.47837e-11 -37.161 6.42222 2.91038e-11 -38.7857 8.0259 3.29692e-11 6.41843 -40.4161 -8.41283e-11 4.81507 -38.7895 -7.99503e-11 3.21087 -37.1637 -7.65965e-11 1.60585 -35.5387 -7.24185e-11 -3.14841e-11 -33.9146 -6.88658e-11 -1.60668 -32.2913 -6.49436e-11 -3.21419 -30.6689 -6.10214e-11 -4.82254 -29.0473 -5.72413e-11 -6.43171 -27.4265 -5.3376e-11 -8.04171 -25.8065 -4.95675e-11 -9.65254 -24.1874 -4.58158e-11 -11.2642 -22.5691 -4.18368e-11 -12.8767 -20.9516 -3.81419e-11 -14.49 -19.335 -3.41061e-11 -16.1042 -17.7192 -3.05818e-11 -17.7192 -16.1042 -2.63682e-11 -19.335 -14.49 -2.251e-11 -20.9516 -12.8767 -1.8531e-11 -22.5691 -11.2642 -1.43245e-11 -24.1874 -9.65254 -1.0175e-11 -25.8065 -8.04171 -6.0254e-12 -27.4265 -6.43171 -1.81899e-12 -29.0473 -4.82254 2.16005e-12 -30.6689 -3.21419 6.13909e-12 -32.2913 -1.60668 1.02318e-11 -33.9146 -5.68434e-14 1.40972e-11 -35.5387 1.60585 1.84173e-11 -37.1637 3.21087 2.251e-11 -38.7895 4.81507 2.66027e-11 -40.4161 6.41843 3.04681e-11 4.8121 -42.0476 -8.6402e-11 3.20898 -40.419 -8.26361e-11 1.60494 -38.7914 -7.88276e-11 -3.35021e-11 -37.1646 -7.50049e-11 -1.60585 -35.5387 -7.11111e-11 -3.21261 -33.9138 -6.73026e-11 -4.82028 -32.2898 -6.37215e-11 -6.42886 -30.6666 -5.95151e-11 -8.03835 -29.0444 -5.59339e-11 -9.64875 -27.4231 -5.22959e-11 -11.2601 -25.8027 -4.83169e-11 -12.8723 -24.1832 -4.44516e-11 -14.4854 -22.5647 -4.05862e-11 -16.0994 -20.947 -3.69482e-11 -17.7144 -19.3302 -3.30829e-11 -19.3302 -17.7144 -2.90825e-11 -20.947 -16.0994 -2.49543e-11 -22.5647 -14.4854 -2.08615e-11 -24.1832 -12.8723 -1.68257e-11 -25.8027 -11.2601 -1.28466e-11 -27.4231 -9.64875 -8.52651e-12 -29.0444 -8.03835 -4.66116e-12 -30.6666 -6.42886 -5.68434e-13 -32.2898 -4.82028 3.63798e-12 -33.9138 -3.21261 7.50333e-12 -35.5387 -1.60585 1.18234e-11 -37.1646 -5.68434e-14 1.56888e-11 -38.7914 1.60494 1.95541e-11 -40.419 3.20898 2.41016e-11 -42.0476 4.8121 2.7967e-11 3.20692 -43.6803 -8.91305e-11 1.60395 -42.0497 -8.50662e-11 -3.52145e-11 -40.42 -8.14282e-11 -1.60494 -38.7914 -7.78186e-11 -3.21087 -37.1637 -7.39533e-11 -4.81779 -35.537 -6.99174e-11 -6.4257 -33.9113 -6.60521e-11 -8.03459 -32.2866 -6.21867e-11 -9.64448 -30.6629 -5.83213e-11 -11.2553 -29.0402 -5.46265e-11 -12.8672 -27.4184 -5.07043e-11 -14.4801 -25.7977 -4.69527e-11 -16.0939 -24.1779 -4.33147e-11 -17.7087 -22.5591 -3.94493e-11 -19.3245 -20.9413 -3.56977e-11 -20.9413 -19.3245 -3.16973e-11 -22.5591 -17.7087 -2.74269e-11 -24.1779 -16.0939 -2.33626e-11 -25.7977 -14.4801 -1.93836e-11 -27.4184 -12.8672 -1.53477e-11 -29.0402 -11.2553 -1.11413e-11 -30.6629 -9.64448 -7.27596e-12 -32.2866 -8.03459 -3.06954e-12 -33.9113 -6.4257 9.09495e-13 -35.537 -4.81779 5.00222e-12 -37.1637 -3.21087 9.09495e-12 -38.7914 -1.60494 1.29603e-11 -40.42 1.13687e-13 1.72804e-11 -42.0497 1.60395 2.09184e-11 -43.6803 3.20692 2.54659e-11 1.60289 -45.3141 -9.1859e-11 -3.76055e-11 -43.6814 -8.77307e-11 -1.60395 -42.0497 -8.40288e-11 -3.20898 -40.419 -7.9865e-11 -4.81507 -38.7895 -7.66534e-11 -6.42222 -37.161 -7.23048e-11 -8.03044 -35.5335 -6.90079e-11 -9.63974 -33.9072 -6.47447e-11 -11.2501 -32.2819 -6.0993e-11 -12.8615 -30.6576 -5.72982e-11 -14.474 -29.0345 -5.33191e-11 -16.0876 -27.4124 -4.94538e-11 -17.7022 -25.7913 -4.55884e-11 -19.3179 -24.1714 -4.19504e-11 -20.9347 -22.5525 -3.79714e-11 -22.5525 -20.9347 -3.40634e-11 -24.1714 -19.3179 -2.98712e-11 -25.7913 -17.7022 -2.60911e-11 -27.4124 -16.0876 -2.1771e-11 -29.0345 -14.474 -1.78488e-11 -30.6576 -12.8615 -1.36424e-11 -32.2819 -11.2501 -9.66338e-12 -33.9072 -9.63974 -5.57066e-12 -35.5335 -8.03044 -1.13687e-12 -37.161 -6.42222 2.50111e-12 -38.7895 -4.81507 6.59384e-12 -40.419 -3.20898 1.04592e-11 -42.0497 -1.60395 1.47793e-11 -43.6814 -5.68434e-14 1.86446e-11 -45.3141 1.60289 2.29647e-11 -3.88809e-11 -46.9491 -9.43601e-11 -1.60289 -45.3141 -9.03881e-11 -3.20692 -43.6803 -8.63878e-11 -4.8121 -42.0476 -8.26219e-11 -6.41843 -40.4161 -7.89555e-11 -8.0259 -38.7857 -7.49196e-11 -9.63452 -37.1564 -7.15659e-11 -11.2443 -35.5283 -6.73595e-11 -12.8552 -33.9013 -6.35509e-11 -14.4673 -32.2755 -5.9913e-11 -16.0805 -30.6509 -5.60476e-11 -17.6948 -29.0273 -5.20686e-11 -19.3103 -27.405 -4.83169e-11 -20.9269 -25.7837 -4.44516e-11 -22.5447 -24.1637 -4.05862e-11 -24.1637 -22.5447 -3.64508e-11 -25.7837 -20.9269 -3.24292e-11 -27.405 -19.3103 -2.85354e-11 -29.0273 -17.6948 -2.44995e-11 -30.6509 -16.0805 -2.04636e-11 -32.2755 -14.4673 -1.63709e-11 -33.9013 -12.8552 -1.22782e-11 -35.5283 -11.2443 -8.07177e-12 -37.1564 -9.63452 -3.86535e-12 -38.7857 -8.0259 2.27374e-13 -40.4161 -6.41843 3.86535e-12 -42.0476 -4.8121 8.18545e-12 -43.6803 -3.20692 1.22782e-11 -45.3141 -1.60289 1.61435e-11 -46.9491 0 2.02363e-11 208.954 1.00044e-11 -1.94404e-11 201.891 7.34803 -1.55076e-11 194.818 14.6859 -1.15818e-11 187.735 22.0135 -7.78755e-12 180.642 29.331 -3.62377e-12 173.539 36.6382 -1.7053e-13 166.425 43.9353 3.6664e-12 159.302 51.2221 7.56017e-12 152.168 58.4988 1.14255e-11 145.024 65.7652 1.52909e-11 137.869 73.0215 1.90425e-11 130.705 80.2676 2.30216e-11 123.53 87.5035 2.68869e-11 116.345 94.7292 3.07523e-11 109.15 101.945 3.45608e-11 101.945 109.15 3.85718e-11 94.7292 116.345 4.23057e-11 87.5035 123.53 4.65832e-11 80.2676 130.705 5.05622e-11 73.0215 137.869 5.44844e-11 65.7652 145.024 5.86056e-11 58.4988 152.168 6.25846e-11 51.2221 159.302 6.66205e-11 43.9353 166.425 7.06564e-11 36.6382 173.539 7.45786e-11 29.331 180.642 7.83302e-11 22.0135 187.735 8.2764e-11 14.6859 194.818 8.65157e-11 7.34803 201.891 9.0381e-11 9.09495e-12 208.954 9.45874e-11 201.891 -7.34803 -2.19393e-11 194.809 9.18821e-12 -1.81536e-11 187.717 7.33854 -1.47161e-11 180.616 14.6676 -1.04366e-11 173.505 21.9871 -6.31343e-12 166.385 29.2972 -3.15658e-12 159.255 36.5978 1.03767e-12 152.116 43.8889 5.0898e-12 144.967 51.1704 8.82929e-12 137.809 58.4425 1.27677e-11 130.641 65.7051 1.65357e-11 123.464 72.9582 2.04457e-11 116.278 80.2019 2.42989e-11 109.081 87.436 2.82657e-11 101.876 94.6606 3.21189e-11 94.6606 101.876 3.6214e-11 87.436 109.081 4.00536e-11 80.2019 116.278 4.40637e-11 72.9582 123.464 4.80454e-11 65.7051 130.641 5.20414e-11 58.4425 137.809 5.60941e-11 51.1704 144.967 6.02322e-11 43.8889 152.116 6.4086e-11 36.5978 159.255 6.81672e-11 29.2972 166.385 7.23621e-11 21.9871 173.505 7.63296e-11 14.6676 180.616 8.02402e-11 7.33854 187.717 8.41509e-11 6.57963e-12 194.809 8.81752e-11 -7.34803 201.891 9.20859e-11 194.818 -14.6859 -2.48929e-11 187.717 -7.33854 -2.08139e-11 180.607 8.15703e-12 -1.7083e-11 173.488 7.32975 -1.31852e-11 166.361 14.6507 -9.05993e-12 159.224 21.9629 -5.24734e-12 152.079 29.2663 -1.56265e-12 144.925 36.5609 2.56258e-12 137.762 43.8467 6.31832e-12 130.591 51.1237 1.02162e-11 123.41 58.3919 1.4114e-11 116.221 65.6513 1.79266e-11 109.023 72.902 2.17676e-11 101.817 80.1438 2.58929e-11 94.6012 87.3769 2.95633e-11 87.3769 94.6012 3.36181e-11 80.1438 101.817 3.75883e-11 72.902 109.023 4.15869e-11 65.6513 116.221 4.56139e-11 58.3919 123.41 4.96267e-11 51.1237 130.591 5.35827e-11 43.8467 137.762 5.76524e-11 36.5609 144.925 6.14378e-11 29.2663 152.079 6.5678e-11 21.9629 159.224 6.95203e-11 14.6507 166.361 7.34762e-11 7.32975 173.488 7.77164e-11 4.23483e-12 180.607 8.17861e-11 -7.33854 187.717 8.52873e-11 -14.6859 194.818 8.95843e-11 187.735 -22.0135 -2.72781e-11 180.616 -14.6676 -2.34564e-11 173.488 -7.32975 -1.93646e-11 166.353 7.61702e-12 -1.57205e-11 159.209 7.32166 -1.17354e-11 152.057 14.6352 -8.03443e-12 144.897 21.9407 -3.99243e-12 137.729 29.2381 -1.35171e-13 130.553 36.5275 3.75051e-12 123.369 43.8087 7.74988e-12 116.176 51.0818 1.16071e-11 108.976 58.3469 1.55497e-11 101.767 65.6039 1.94069e-11 94.5509 72.8528 2.31789e-11 87.3263 80.0936 2.72351e-11 80.0936 87.3263 3.11502e-11 72.8528 94.5509 3.51372e-11 65.6039 101.767 3.91527e-11 58.3469 108.976 4.3154e-11 51.0818 116.176 4.71269e-11 43.8087 123.369 5.11566e-11 36.5275 130.553 5.51294e-11 29.2381 137.729 5.92444e-11 21.9407 144.897 6.31319e-11 14.6352 152.057 6.71901e-11 7.32166 1