<?xml version="1.0"?> 
<VTKFile type="StructuredGrid" version="0.1"> 
<StructuredGrid WholeExtent="0 29 0 29 0 29"> 
<Piece Extent="0 29 0 29 0 29"> 
<PointData>
<DataArray type="Float32" Name="hfield" format="ascii" NumberOfComponents="3"> 
-6.65732 -125.908 1.53095 -1.93015 -126.626 1.29979 1.8498 -127.442 1.09608 4.85151 -128.358 0.915212 7.2066 -129.377 0.753542 9.01878 -130.501 0.608169 10.3706 -131.736 0.476748 11.3281 -133.084 0.357361 11.945 -134.551 0.248428 12.2644 -136.143 0.148634 12.3217 -137.865 0.0568745 12.1456 -139.726 -0.0277829 11.7593 -141.732 -0.106132 11.1816 -143.893 -0.178853 10.4276 -146.219 -0.24653 9.89862 -147.629 -0.40005 9.68581 -148.094 -0.63106 9.42831 -148.699 -0.84756 9.1258 -149.451 -1.05088 8.77742 -150.359 -1.24217 8.38176 -151.433 -1.42249 7.93684 -152.686 -1.59275 7.4401 -154.131 -1.75376 6.88829 -155.785 -1.90626 6.27741 -157.665 -2.05091 5.60262 -159.793 -2.1883 4.85808 -162.196 -2.31896 4.03679 -164.902 -2.44337 3.13037 -167.946 -2.56198 2.12873 -171.371 -2.67517 -9.84573 -120.872 1.33109 -6.30492 -122.11 1.13387 -3.5034 -123.396 0.958761 -1.31575 -124.741 0.802312 0.357248 -126.155 0.661751 1.59476 -127.647 0.53483 2.46052 -129.224 0.419707 3.00609 -130.897 0.314855 3.27346 -132.672 0.219 3.29688 -134.558 0.131072 3.10433 -136.565 0.0501624 2.71863 -138.701 -0.0245038 2.15833 -140.979 -0.0935907 1.43835 -143.407 -0.157672 0.570515 -146 -0.217246 0.0114523 -147.618 -0.352346 -0.164067 -148.24 -0.555466 -0.379837 -149.013 -0.745505 -0.636236 -149.948 -0.923612 -0.934117 -151.055 -1.0908 -1.27483 -152.346 -1.24799 -1.66024 -153.834 -1.39597 -2.09278 -155.537 -1.53548 -2.57551 -157.473 -1.66716 -3.1122 -159.665 -1.7916 -3.70743 -162.139 -1.90933 -4.36676 -164.924 -2.02083 -5.09685 -168.057 -2.12652 -5.90575 -171.58 -2.22682 -6.80318 -175.544 -2.32206 -13.4273 -116.23 1.16118 -10.8605 -117.851 0.991618 -8.87541 -119.49 0.840188 -7.37729 -121.161 0.704242 -6.29045 -122.877 0.581617 -5.55384 -124.651 0.470538 -5.11799 -126.494 0.369529 -4.94257 -128.417 0.277357 -4.99464 -130.43 0.192981 -5.24724 -132.545 0.115516 -5.67836 -134.771 0.0442086 -6.27007 -137.121 -0.0215922 -7.00789 -139.607 -0.0824473 -7.88029 -142.24 -0.138845 -8.87831 -145.036 -0.19121 -9.49005 -146.813 -0.309938 -9.65481 -147.555 -0.488283 -9.85866 -148.459 -0.654845 -10.1023 -149.535 -0.810626 -10.3867 -150.795 -0.956515 -10.7137 -152.253 -1.09331 -11.0853 -153.925 -1.22172 -11.5043 -155.83 -1.34239 -11.974 -157.989 -1.4559 -12.4986 -160.428 -1.56277 -13.0831 -163.176 -1.66347 -13.7334 -166.269 -1.75844 -14.4569 -169.748 -1.84805 -15.2623 -173.663 -1.93268 -16.1603 -178.072 -2.01264 -17.2832 -111.861 1.01412 -15.5271 -113.769 0.867682 -14.2305 -115.672 0.736308 -13.3212 -117.589 0.617923 -12.741 -119.535 0.510812 -12.4427 -121.524 0.413548 -12.3878 -123.569 0.324935 -12.5448 -125.683 0.243962 -12.8881 -127.877 0.169771 -13.3967 -130.165 0.101623 -14.0535 -132.557 0.0388865 -14.8448 -135.068 -0.018988 -15.7596 -137.708 -0.0724777 -16.7894 -140.494 -0.122 -17.9279 -143.44 -0.167921 -18.6084 -145.333 -0.272016 -18.7823 -146.164 -0.42824 -18.9968 -147.164 -0.573877 -19.2531 -148.344 -0.709802 -19.5528 -149.718 -0.836796 -19.8982 -151.301 -0.95556 -20.2919 -153.11 -1.06672 -20.7373 -155.167 -1.17086 -21.2386 -157.494 -1.26847 -21.8007 -160.122 -1.36003 -22.4296 -163.082 -1.44596 -23.1326 -166.414 -1.52665 -23.9184 -170.164 -1.60245 -24.7976 -174.389 -1.67368 -25.7829 -179.156 -1.74063 -21.3288 -107.683 0.884816 -20.2545 -109.801 0.758139 -19.5434 -111.901 0.644093 -19.1401 -114.002 0.541021 -18.9998 -116.12 0.447544 -19.0861 -118.27 0.362502 -19.3691 -120.467 0.284916 -19.8246 -122.723 0.21395 -20.4329 -125.052 0.148888 -21.178 -127.467 0.0891137 -22.0469 -129.981 0.0340923 -23.0295 -132.606 -0.0166418 -24.1179 -135.358 -0.0634959 -25.3064 -138.251 -0.106828 -26.591 -141.301 -0.146954 -27.3512 -143.275 -0.237899 -27.5488 -144.167 -0.374261 -27.7909 -145.234 -0.501154 -28.0792 -146.487 -0.61934 -28.4161 -147.94 -0.729503 -28.8044 -149.61 -0.832262 -29.2479 -151.517 -0.92817 -29.7508 -153.681 -1.01773 -30.3185 -156.13 -1.1014 -30.9572 -158.893 -1.1796 -31.6744 -162.008 -1.2527 -32.4793 -165.516 -1.32105 -33.3828 -169.47 -1.38496 -34.3982 -173.93 -1.44472 -35.5414 -178.972 -1.5006 -25.5022 -103.632 0.76948 -25.006 -105.903 0.660037 -24.7959 -108.147 0.561231 -24.8295 -110.382 0.471728 -25.0725 -112.626 0.390409 -25.4969 -114.894 0.316324 -26.0801 -117.201 0.248664 -26.8036 -119.56 0.186736 -27.6527 -121.985 0.12994 -28.6154 -124.489 0.0777593 -29.6825 -127.087 0.0297404 -30.847 -129.791 -0.0145122 -32.1038 -132.616 -0.0553465 -33.4496 -135.578 -0.0930694 -34.8827 -138.694 -0.127953 -35.7297 -140.718 -0.207006 -35.9616 -141.649 -0.325432 -36.2436 -142.758 -0.435439 -36.5782 -144.056 -0.537692 -36.9686 -145.56 -0.632791 -37.4186 -147.285 -0.721276 -37.9329 -149.253 -0.803636 -38.5171 -151.486 -0.880314 -39.178 -154.013 -0.951715 -39.9234 -156.867 -1.0182 -40.7631 -160.084 -1.08012 -41.7084 -163.713 -1.13777 -42.7732 -167.807 -1.19143 -43.9742 -172.434 -1.24136 -45.3321 -177.674 -1.2878 -29.7576 -99.6632 0.665247 -29.7546 -102.042 0.5711 -29.9752 -104.387 0.485917 -30.3873 -106.717 0.408618 -30.965 -109.049 0.338287 -31.6873 -111.399 0.274145 -32.5372 -113.781 0.215523 -33.5013 -116.21 0.161842 -34.5688 -118.699 0.112603 -35.7315 -121.261 0.0673695 -36.9832 -123.911 0.0257588 -38.3197 -126.662 -0.0125646 -39.7383 -129.529 -0.0478974 -41.2381 -132.529 -0.0805021 -42.8193 -135.678 -0.110612 -43.7574 -137.727 -0.17884 -44.0312 -138.678 -0.280962 -44.362 -139.808 -0.375665 -44.7532 -141.129 -0.463524 -45.209 -142.657 -0.545062 -45.7344 -144.41 -0.620749 -46.3351 -146.409 -0.691013 -47.0184 -148.678 -0.756242 -47.7926 -151.246 -0.816791 -48.6677 -154.148 -0.872984 -49.6556 -157.423 -0.925115 -50.7706 -161.121 -0.973457 -52.0302 -165.3 -1.01826 -53.4553 -170.03 -1.05975 -55.0719 -175.398 -1.09813 -34.0602 -95.7416 0.569887 -34.4797 -98.1902 0.489539 -35.0719 -100.602 0.416716 -35.8129 -102.994 0.350541 -36.6835 -105.383 0.290268 -37.6683 -107.786 0.235254 -38.7554 -110.215 0.184948 -39.9353 -112.686 0.138871 -41.2008 -115.211 0.0966045 -42.5469 -117.805 0.0577835 -43.97 -120.481 0.0220867 -45.4684 -123.253 -0.0107694 -47.0416 -126.137 -0.0410357 -48.6908 -129.147 -0.0689358 -50.4182 -132.303 -0.0946686 -51.4494 -134.355 -0.152971 -51.7701 -135.31 -0.240169 -52.1559 -136.443 -0.320904 -52.6111 -137.768 -0.395671 -53.1408 -139.299 -0.464921 -53.7513 -141.056 -0.52906 -54.4498 -143.059 -0.588458 -55.245 -145.335 -0.643452 -56.1471 -147.912 -0.694351 -57.1683 -150.826 -0.741435 -58.3234 -154.119 -0.784963 -59.6298 -157.841 -0.825171 -61.109 -162.053 -0.862278 -62.7867 -166.829 -0.896484 -64.6951 -172.259 -0.927974 -38.3835 -91.8407 0.481628 -39.1663 -94.3284 0.413914 -40.0798 -96.7769 0.35246 -41.1068 -99.2035 0.296557 -42.2339 -101.624 0.245597 -43.4504 -104.054 0.199058 -44.7483 -106.507 0.156485 -46.1218 -108.996 0.117485 -47.5667 -111.536 0.0817125 -49.0807 -114.139 0.0488637 -50.6626 -116.819 0.0186715 -52.3128 -119.59 -0.00910085 -54.0331 -122.468 -0.0346638 -55.8263 -125.467 -0.0582049 -57.6965 -128.606 -0.0798918 -58.8213 -130.644 -0.129024 -59.1923 -131.59 -0.202453 -59.6371 -132.713 -0.270341 -60.1612 -134.024 -0.33311 -60.7706 -135.541 -0.391141 -61.4729 -137.282 -0.444781 -62.2768 -139.268 -0.494345 -63.1927 -141.524 -0.540122 -64.2327 -144.082 -0.582376 -65.4117 -146.977 -0.621348 -66.7471 -150.252 -0.657258 -68.26 -153.958 -0.690312 -69.976 -158.157 -0.720697 -71.9264 -162.926 -0.748585 -74.1499 -168.358 -0.774137 -42.7074 -87.9405 0.399031 -43.803 -90.4403 0.343047 -44.9945 -92.9007 0.292185 -46.2705 -95.3381 0.245879 -47.6222 -97.7676 0.203642 -49.0431 -100.203 0.165053 -50.5285 -102.659 0.129744 -52.0755 -105.147 0.0973959 -53.6828 -107.682 0.0677274 -55.3503 -110.275 0.040491 -57.079 -112.941 0.0154678 -58.8714 -115.693 -0.00753677 -60.731 -118.546 -0.0286957 -62.6622 -121.515 -0.0481638 -64.6711 -124.618 -0.0660796 -65.8888 -126.627 -0.106665 -66.312 -127.555 -0.167283 -66.8185 -128.655 -0.223255 -67.4144 -129.94 -0.274932 -68.1072 -131.427 -0.32263 -68.9055 -133.135 -0.366641 -69.8196 -135.084 -0.407228 -70.8617 -137.3 -0.444631 -72.0461 -139.815 -0.479072 -73.39 -142.663 -0.510754 -74.9139 -145.888 -0.539862 -76.6427 -149.541 -0.566568 -78.6064 -153.687 -0.591029 -80.8422 -158.402 -0.613392 -83.3956 -163.781 -0.633792 -47.0163 -84.0252 0.320903 -48.3813 -86.5133 0.275948 -49.8135 -88.9634 0.235074 -51.3061 -91.3906 0.197838 -52.8544 -93.809 0.163859 -54.4553 -96.232 0.132805 -56.1072 -98.6724 0.104387 -57.8098 -101.143 0.0783506 -59.5639 -103.655 0.0544742 -61.3716 -106.223 0.0325605 -63.236 -108.859 0.0124351 -65.1611 -111.576 -0.00605731 -67.1521 -114.388 -0.0230552 -69.2152 -117.312 -0.0386827 -71.3579 -120.362 -0.0530511 -72.667 -122.331 -0.0855989 -73.1435 -123.231 -0.134185 -73.7128 -124.299 -0.178998 -74.3823 -125.547 -0.22032 -75.1603 -126.992 -0.258409 -76.0568 -128.652 -0.293499 -77.0837 -130.549 -0.325804 -78.2548 -132.707 -0.355519 -79.5867 -135.156 -0.382824 -81.0991 -137.934 -0.407884 -82.8157 -141.082 -0.430849 -84.765 -144.652 -0.45186 -86.9819 -148.707 -0.471045 -89.509 -153.326 -0.488523 -92.3995 -158.603 -0.504404 -51.2985 -80.0832 0.246226 -52.8952 -82.5375 0.211769 -54.5353 -84.9568 0.180422 -56.2161 -87.3547 0.151852 -57.9362 -89.7442 0.125773 -59.6956 -92.1376 0.101933 -61.495 -94.5469 0.0801146 -63.3366 -96.9839 0.0601255 -65.2234 -99.4603 0.0417967 -67.159 -101.988 0.0249783 -69.1484 -104.58 0.00953732 -71.1971 -107.248 -0.00464464 -73.312 -110.007 -0.0176735 -75.5005 -112.871 -0.0296444 -77.7717 -115.856 -0.0406425 -79.1701 -117.775 -0.0655548 -79.7001 -118.641 -0.102726 -80.3327 -119.668 -0.13698 -81.0761 -120.871 -0.168534 -81.9398 -122.263 -0.197585 -82.9352 -123.864 -0.224316 -84.0754 -125.694 -0.248891 -85.3762 -127.778 -0.27146 -86.8563 -130.146 -0.292164 -88.5379 -132.832 -0.311129 -90.4476 -135.878 -0.328472 -92.618 -139.337 -0.344302 -95.0883 -143.27 -0.358719 -97.9072 -147.754 -0.371815 -101.135 -152.883 -0.383675 -55.5453 -76.1057 0.174115 -57.3406 -78.5053 0.149767 -59.1598 -80.8743 0.127607 -61.0035 -83.2249 0.107404 -62.8732 -85.5688 0.0889583 -64.7715 -87.917 0.0720941 -66.7014 -90.2806 0.0566588 -68.6671 -92.6705 0.0425182 -70.6732 -95.0976 0.0295532 -72.7253 -97.5731 0.0176589 -74.8296 -100.109 0.00674147 -76.9932 -102.717 -0.00328245 -79.2242 -105.411 -0.0124876 -81.5317 -108.204 -0.0209411 -83.9258 -111.111 -0.0287032 -85.4107 -112.972 -0.046285 -85.9939 -113.798 -0.0725094 -86.6893 -114.779 -0.0966589 -87.5062 -115.929 -0.118888 -88.4551 -117.261 -0.139336 -89.5485 -118.792 -0.158133 -90.8011 -120.545 -0.175395 -92.2304 -122.541 -0.19123 -93.857 -124.811 -0.205736 -95.7057 -127.388 -0.219005 -97.8061 -130.313 -0.23112 -100.194 -133.636 -0.242158 -102.914 -137.418 -0.252189 -106.02 -141.733 -0.261281 -109.579 -146.675 -0.269494 -59.7504 -72.0867 0.103776 -61.7152 -74.4106 0.089271 -63.6877 -76.7104 0.0760656 -65.6715 -78.9962 0.0640241 -67.6708 -81.2784 0.053028 -69.6902 -83.5666 0.042974 -71.7349 -85.8707 0.0337718 -73.8107 -88.2006 0.0253415 -75.924 -90.5663 0.0176127 -78.0815 -92.9781 0.010523 -80.2911 -95.447 0.00401683 -82.5611 -97.9844 -0.00195556 -84.9007 -100.603 -0.00743859 -87.3203 -103.315 -0.0124722 -89.8313 -106.135 -0.0170924 -91.3997 -107.93 -0.0275572 -92.0352 -108.713 -0.0431625 -92.7925 -109.643 -0.0575265 -93.6816 -110.734 -0.070741 -94.7141 -111.998 -0.0828902 -95.9035 -113.453 -0.0940507 -97.2661 -115.118 -0.104293 -98.8209 -117.016 -0.11368 -100.59 -119.175 -0.122273 -102.602 -121.628 -0.130124 -104.888 -124.414 -0.137285 -107.488 -127.58 -0.143801 -110.449 -131.186 -0.149715 -113.833 -135.302 -0.155067 -117.712 -140.02 -0.159892 -63.9099 -68.022 0.0344779 -66.0179 -70.2492 0.0296597 -68.1204 -72.4603 0.0252728 -70.2237 -74.664 0.0212722 -72.3342 -76.8684 0.0176186 -74.4584 -79.082 0.014278 -76.6033 -81.3133 0.0112203 -78.7762 -83.5708 0.00841913 -80.9849 -85.8636 0.00585118 -83.2375 -88.201 0.00349572 -85.5429 -90.5929 0.0013343 -87.9107 -93.05 -0.00064955 -90.3513 -95.5835 -0.00247059 -92.876 -98.206 -0.00414209 -95.4975 -100.931 -0.00567599 -97.1458 -102.655 -0.0091503 -97.8323 -103.391 -0.0143307 -98.6498 -104.266 -0.0190978 -99.6091 -105.293 -0.0234823 -100.723 -106.484 -0.0275122 -102.005 -107.855 -0.0312129 -103.474 -109.425 -0.0346077 -105.15 -111.216 -0.0377182 -107.057 -113.254 -0.0405639 -109.225 -115.569 -0.0431629 -111.688 -118.2 -0.0455319 -114.49 -121.192 -0.0476863 -117.682 -124.6 -0.0496402 -121.329 -128.493 -0.051407 -125.511 -132.956 -0.0529986 -68.022 -63.9099 -0.0344779 -70.2492 -66.0179 -0.0296597 -72.4603 -68.1204 -0.0252728 -74.664 -70.2237 -0.0212722 -76.8684 -72.3342 -0.0176186 -79.082 -74.4584 -0.014278 -81.3133 -76.6033 -0.0112203 -83.5708 -78.7762 -0.00841913 -85.8636 -80.9849 -0.00585118 -88.201 -83.2375 -0.00349572 -90.5929 -85.5429 -0.0013343 -93.05 -87.9107 0.00064955 -95.5835 -90.3513 0.00247059 -98.206 -92.876 0.00414209 -100.931 -95.4975 0.00567599 -102.655 -97.1458 0.0091503 -103.391 -97.8323 0.0143307 -104.266 -98.6498 0.0190978 -105.293 -99.6091 0.0234823 -106.484 -100.723 0.0275122 -107.855 -102.005 0.0312129 -109.425 -103.474 0.0346077 -111.216 -105.15 0.0377182 -113.254 -107.057 0.0405639 -115.569 -109.225 0.0431629 -118.2 -111.688 0.0455319 -121.192 -114.49 0.0476863 -124.6 -117.682 0.0496402 -128.493 -121.329 0.051407 -132.956 -125.511 0.0529986 -72.0867 -59.7504 -0.103776 -74.4106 -61.7152 -0.089271 -76.7104 -63.6877 -0.0760656 -78.9962 -65.6715 -0.0640241 -81.2784 -67.6708 -0.053028 -83.5666 -69.6902 -0.042974 -85.8707 -71.7349 -0.0337718 -88.2006 -73.8107 -0.0253415 -90.5663 -75.924 -0.0176127 -92.9781 -78.0815 -0.010523 -95.447 -80.2911 -0.00401683 -97.9844 -82.5611 0.00195556 -100.603 -84.9007 0.00743859 -103.315 -87.3203 0.0124722 -106.135 -89.8313 0.0170924 -107.93 -91.3997 0.0275572 -108.713 -92.0352 0.0431625 -109.643 -92.7925 0.0575265 -110.734 -93.6816 0.070741 -111.998 -94.7141 0.0828902 -113.453 -95.9035 0.0940507 -115.118 -97.2661 0.104293 -117.016 -98.8209 0.11368 -119.175 -100.59 0.122273 -121.628 -102.602 0.130124 -124.414 -104.888 0.137285 -127.58 -107.488 0.143801 -131.186 -110.449 0.149715 -135.302 -113.833 0.155067 -140.02 -117.712 0.159892 -76.1057 -55.5453 -0.174115 -78.5053 -57.3406 -0.149767 -80.8743 -59.1598 -0.127607 -83.2249 -61.0035 -0.107404 -85.5688 -62.8732 -0.0889583 -87.917 -64.7715 -0.0720941 -90.2806 -66.7014 -0.0566588 -92.6705 -68.6671 -0.0425182 -95.0976 -70.6732 -0.0295532 -97.5731 -72.7253 -0.0176589 -100.109 -74.8296 -0.00674147 -102.717 -76.9932 0.00328245 -105.411 -79.2242 0.0124876 -108.204 -81.5317 0.0209411 -111.111 -83.9258 0.0287032 -112.972 -85.4107 0.046285 -113.798 -85.9939 0.0725094 -114.779 -86.6893 0.0966589 -115.929 -87.5062 0.118888 -117.261 -88.4551 0.139336 -118.792 -89.5485 0.158133 -120.545 -90.8011 0.175395 -122.541 -92.2304 0.19123 -124.811 -93.857 0.205736 -127.388 -95.7057 0.219005 -130.313 -97.8061 0.23112 -133.636 -100.194 0.242158 -137.418 -102.914 0.252189 -141.733 -106.02 0.261281 -146.675 -109.579 0.269494 -80.0832 -51.2985 -0.246226 -82.5375 -52.8952 -0.211769 -84.9568 -54.5353 -0.180422 -87.3547 -56.2161 -0.151852 -89.7442 -57.9362 -0.125773 -92.1376 -59.6956 -0.101933 -94.5469 -61.495 -0.0801146 -96.9839 -63.3366 -0.0601255 -99.4603 -65.2234 -0.0417967 -101.988 -67.159 -0.0249783 -104.58 -69.1484 -0.00953732 -107.248 -71.1971 0.00464464 -110.007 -73.312 0.0176735 -112.871 -75.5005 0.0296444 -115.856 -77.7717 0.0406425 -117.775 -79.1701 0.0655548 -118.641 -79.7001 0.102726 -119.668 -80.3327 0.13698 -120.871 -81.0761 0.168534 -122.263 -81.9398 0.197585 -123.864 -82.9352 0.224316 -125.694 -84.0754 0.248891 -127.778 -85.3762 0.27146 -130.146 -86.8563 0.292164 -132.832 -88.5379 0.311129 -135.878 -90.4476 0.328472 -139.337 -92.618 0.344302 -143.27 -95.0883 0.358719 -147.754 -97.9072 0.371815 -152.883 -101.135 0.383675 -84.0252 -47.0163 -0.320903 -86.5133 -48.3813 -0.275948 -88.9634 -49.8135 -0.235074 -91.3906 -51.3061 -0.197838 -93.809 -52.8544 -0.163859 -96.232 -54.4553 -0.132805 -98.6724 -56.1072 -0.104387 -101.143 -57.8098 -0.0783506 -103.655 -59.5639 -0.0544742 -106.223 -61.3716 -0.0325605 -108.859 -63.236 -0.0124351 -111.576 -65.1611 0.00605731 -114.388 -67.1521 0.0230552 -117.312 -69.2152 0.0386827 -120.362 -71.3579 0.0530511 -122.331 -72.667 0.0855989 -123.231 -73.1435 0.134185 -124.299 -73.7128 0.178998 -125.547 -74.3823 0.22032 -126.992 -75.1603 0.258409 -128.652 -76.0568 0.293499 -130.549 -77.0837 0.325804 -132.707 -78.2548 0.355519 -135.156 -79.5867 0.382824 -137.934 -81.0991 0.407884 -141.082 -82.8157 0.430849 -144.652 -84.765 0.45186 -148.707 -86.9819 0.471045 -153.326 -89.509 0.488523 -158.603 -92.3995 0.504404 -87.9405 -42.7074 -0.399031 -90.4403 -43.803 -0.343047 -92.9007 -44.9945 -0.292185 -95.3381 -46.2705 -0.245879 -97.7676 -47.6222 -0.203642 -100.203 -49.0431 -0.165053 -102.659 -50.5285 -0.129744 -105.147 -52.0755 -0.0973959 -107.682 -53.6828 -0.0677274 -110.275 -55.3503 -0.040491 -112.941 -57.079 -0.0154678 -115.693 -58.8714 0.00753677 -118.546 -60.731 0.0286957 -121.515 -62.6622 0.0481638 -124.618 -64.6711 0.0660796 -126.627 -65.8888 0.106665 -127.555 -66.312 0.167283 -128.655 -66.8185 0.223255 -129.94 -67.4144 0.274932 -131.427 -68.1072 0.32263 -133.135 -68.9055 0.366641 -135.084 -69.8196 0.407228 -137.3 -70.8617 0.444631 -139.815 -72.0461 0.479072 -142.663 -73.39 0.510754 -145.888 -74.9139 0.539862 -149.541 -76.6427 0.566568 -153.687 -78.6064 0.591029 -158.402 -80.8422 0.613392 -163.781 -83.3956 0.633792 -91.8407 -38.3835 -0.481628 -94.3284 -39.1663 -0.413914 -96.7769 -40.0798 -0.35246 -99.2035 -41.1068 -0.296557 -101.624 -42.2339 -0.245597 -104.054 -43.4504 -0.199058 -106.507 -44.7483 -0.156485 -108.996 -46.1218 -0.117485 -111.536 -47.5667 -0.0817125 -114.139 -49.0807 -0.0488637 -116.819 -50.6626 -0.0186715 -119.59 -52.3128 0.00910085 -122.468 -54.0331 0.0346638 -125.467 -55.8263 0.0582049 -128.606 -57.6965 0.0798918 -130.644 -58.8213 0.129024 -131.59 -59.1923 0.202453 -132.713 -59.6371 0.270341 -134.024 -60.1612 0.33311 -135.541 -60.7706 0.391141 -137.282 -61.4729 0.444781 -139.268 -62.2768 0.494345 -141.524 -63.1927 0.540122 -144.082 -64.2327 0.582376 -146.977 -65.4117 0.621348 -150.252 -66.7471 0.657258 -153.958 -68.26 0.690312 -158.157 -69.976 0.720697 -162.926 -71.9264 0.748585 -168.358 -74.1499 0.774137 -95.7416 -34.0602 -0.569887 -98.1902 -34.4797 -0.489539 -100.602 -35.0719 -0.416716 -102.994 -35.8129 -0.350541 -105.383 -36.6835 -0.290268 -107.786 -37.6683 -0.235254 -110.215 -38.7554 -0.184948 -112.686 -39.9353 -0.138871 -115.211 -41.2008 -0.0966045 -117.805 -42.5469 -0.0577835 -120.481 -43.97 -0.0220867 -123.253 -45.4684 0.0107694 -126.137 -47.0416 0.0410357 -129.147 -48.6908 0.0689358 -132.303 -50.4182 0.0946686 -134.355 -51.4494 0.152971 -135.31 -51.7701 0.240169 -136.443 -52.1559 0.320904 -137.768 -52.6111 0.395671 -139.299 -53.1408 0.464921 -141.056 -53.7513 0.52906 -143.059 -54.4498 0.588458 -145.335 -55.245 0.643452 -147.912 -56.1471 0.694351 -150.826 -57.1683 0.741435 -154.119 -58.3234 0.784963 -157.841 -59.6298 0.825171 -162.053 -61.109 0.862278 -166.829 -62.7867 0.896484 -172.259 -64.6951 0.927974 -99.6632 -29.7576 -0.665247 -102.042 -29.7546 -0.5711 -104.387 -29.9752 -0.485917 -106.717 -30.3873 -0.408618 -109.049 -30.965 -0.338287 -111.399 -31.6873 -0.274145 -113.781 -32.5372 -0.215523 -116.21 -33.5013 -0.161842 -118.699 -34.5688 -0.112603 -121.261 -35.7315 -0.0673695 -123.911 -36.9832 -0.0257588 -126.662 -38.3197 0.0125646 -129.529 -39.7383 0.0478974 -132.529 -41.2381 0.0805021 -135.678 -42.8193 0.110612 -137.727 -43.7574 0.17884 -138.678 -44.0312 0.280962 -139.808 -44.362 0.375665 -141.129 -44.7532 0.463524 -142.657 -45.209 0.545062 -144.41 -45.7344 0.620749 -146.409 -46.3351 0.691013 -148.678 -47.0184 0.756242 -151.246 -47.7926 0.816791 -154.148 -48.6677 0.872984 -157.423 -49.6556 0.925115 -161.121 -50.7706 0.973457 -165.3 -52.0302 1.01826 -170.03 -53.4553 1.05975 -175.398 -55.0719 1.09813 -103.632 -25.5022 -0.76948 -105.903 -25.006 -0.660037 -108.147 -24.7959 -0.561231 -110.382 -24.8295 -0.471728 -112.626 -25.0725 -0.390409 -114.894 -25.4969 -0.316324 -117.201 -26.0801 -0.248664 -119.56 -26.8036 -0.186736 -121.985 -27.6527 -0.12994 -124.489 -28.6154 -0.0777593 -127.087 -29.6825 -0.0297404 -129.791 -30.847 0.0145122 -132.616 -32.1038 0.0553465 -135.578 -33.4496 0.0930694 -138.694 -34.8827 0.127953 -140.718 -35.7297 0.207006 -141.649 -35.9616 0.325432 -142.758 -36.2436 0.435439 -144.056 -36.5782 0.537692 -145.56 -36.9686 0.632791 -147.285 -37.4186 0.721276 -149.253 -37.9329 0.803636 -151.486 -38.5171 0.880314 -154.013 -39.178 0.951715 -156.867 -39.9234 1.0182 -160.084 -40.7631 1.08012 -163.713 -41.7084 1.13777 -167.807 -42.7732 1.19143 -172.434 -43.9742 1.24136 -177.674 -45.3321 1.2878 -107.683 -21.3288 -0.884816 -109.801 -20.2545 -0.758139 -111.901 -19.5434 -0.644093 -114.002 -19.1401 -0.541021 -116.12 -18.9998 -0.447544 -118.27 -19.0861 -0.362502 -120.467 -19.3691 -0.284916 -122.723 -19.8246 -0.21395 -125.052 -20.4329 -0.148888 -127.467 -21.178 -0.0891137 -129.981 -22.0469 -0.0340923 -132.606 -23.0295 0.0166418 -135.358 -24.1179 0.0634959 -138.251 -25.3064 0.106828 -141.301 -26.591 0.146954 -143.275 -27.3512 0.237899 -144.167 -27.5488 0.374261 -145.234 -27.7909 0.501154 -146.487 -28.0792 0.61934 -147.94 -28.4161 0.729503 -149.61 -28.8044 0.832262 -151.517 -29.2479 0.92817 -153.681 -29.7508 1.01773 -156.13 -30.3185 1.1014 -158.893 -30.9572 1.1796 -162.008 -31.6744 1.2527 -165.516 -32.4793 1.32105 -169.47 -33.3828 1.38496 -173.93 -34.3982 1.44472 -178.972 -35.5414 1.5006 -111.861 -17.2832 -1.01412 -113.769 -15.5271 -0.867682 -115.672 -14.2305 -0.736308 -117.589 -13.3212 -0.617923 -119.535 -12.741 -0.510812 -121.524 -12.4427 -0.413548 -123.569 -12.3878 -0.324935 -125.683 -12.5448 -0.243962 -127.877 -12.8881 -0.169771 -130.165 -13.3967 -0.101623 -132.557 -14.0535 -0.0388865 -135.068 -14.8448 0.018988 -137.708 -15.7596 0.0724777 -140.494 -16.7894 0.122 -143.44 -17.9279 0.167921 -145.333 -18.6084 0.272016 -146.164 -18.7823 0.42824 -147.164 -18.9968 0.573877 -148.344 -19.2531 0.709802 -149.718 -19.5528 0.836796 -151.301 -19.8982 0.95556 -153.11 -20.2919 1.06672 -155.167 -20.7373 1.17086 -157.494 -21.2386 1.26847 -160.122 -21.8007 1.36003 -163.082 -22.4296 1.44596 -166.414 -23.1326 1.52665 -170.164 -23.9184 1.60245 -174.389 -24.7976 1.67368 -179.156 -25.7829 1.74063 -116.23 -13.4273 -1.16118 -117.851 -10.8605 -0.991618 -119.49 -8.87541 -0.840188 -121.161 -7.37729 -0.704242 -122.877 -6.29045 -0.581617 -124.651 -5.55384 -0.470538 -126.494 -5.11799 -0.369529 -128.417 -4.94257 -0.277357 -130.43 -4.99464 -0.192981 -132.545 -5.24724 -0.115516 -134.771 -5.67836 -0.0442086 -137.121 -6.27007 0.0215922 -139.607 -7.00789 0.0824473 -142.24 -7.88029 0.138845 -145.036 -8.87831 0.19121 -146.813 -9.49005 0.309938 -147.555 -9.65481 0.488283 -148.459 -9.85866 0.654845 -149.535 -10.1023 0.810626 -150.795 -10.3867 0.956515 -152.253 -10.7137 1.09331 -153.925 -11.0853 1.22172 -155.83 -11.5043 1.34239 -157.989 -11.974 1.4559 -160.428 -12.4986 1.56277 -163.176 -13.0831 1.66347 -166.269 -13.7334 1.75844 -169.748 -14.4569 1.84805 -173.663 -15.2623 1.93268 -178.072 -16.1603 2.01264 -120.872 -9.84573 -1.33109 -122.11 -6.30492 -1.13387 -123.396 -3.5034 -0.958761 -124.741 -1.31575 -0.802312 -126.155 0.357248 -0.661751 -127.647 1.59476 -0.53483 -129.224 2.46052 -0.419707 -130.897 3.00609 -0.314855 -132.672 3.27346 -0.219 -134.558 3.29688 -0.131072 -136.565 3.10433 -0.0501624 -138.701 2.71863 0.0245038 -140.979 2.15833 0.0935907 -143.407 1.43835 0.157672 -146 0.570515 0.217246 -147.618 0.0114523 0.352346 -148.24 -0.164067 0.555466 -149.013 -0.379837 0.745505 -149.948 -0.636236 0.923612 -151.055 -0.934117 1.0908 -152.346 -1.27483 1.24799 -153.834 -1.66024 1.39597 -155.537 -2.09278 1.53548 -157.473 -2.57551 1.66716 -159.665 -3.1122 1.7916 -162.139 -3.70743 1.90933 -164.924 -4.36676 2.02083 -168.057 -5.09685 2.12652 -171.58 -5.90575 2.22682 -175.544 -6.80318 2.32206 -125.908 -6.65732 -1.53095 -126.626 -1.93015 -1.29979 -127.442 1.8498 -1.09608 -128.358 4.85151 -0.915212 -129.377 7.2066 -0.753542 -130.501 9.01878 -0.608169 -131.736 10.3706 -0.476748 -133.084 11.3281 -0.357361 -134.551 11.945 -0.248428 -136.143 12.2644 -0.148634 -137.865 12.3217 -0.0568745 -139.726 12.1456 0.0277829 -141.732 11.7593 0.106132 -143.893 11.1816 0.178853 -146.219 10.4276 0.24653 -147.629 9.89862 0.40005 -148.094 9.68581 0.63106 -148.699 9.42831 0.84756 -149.451 9.1258 1.05088 -150.359 8.77742 1.24217 -151.433 8.38176 1.42249 -152.686 7.93684 1.59275 -154.131 7.4401 1.75376 -155.785 6.88829 1.90626 -157.665 6.27741 2.05091 -159.793 5.60262 2.1883 -162.196 4.85808 2.31896 -164.902 4.03679 2.44337 -167.946 3.13037 2.56198 -171.371 2.12873 2.67517 -1.54419 -287.455 4.11838 4.09616 -295.808 3.44432 8.36553 -304.205 2.96009 11.5484 -312.66 2.61345 13.8655 -321.191 2.36504 15.4906 -329.813 2.18489 16.5624 -338.545 2.05006 17.1925 -347.404 1.94291 17.4721 -356.407 1.8498 17.4762 -365.576 1.76021 17.2672 -374.929 1.66602 16.8975 -384.488 1.561 16.4115 -394.275 1.44042 15.8473 -404.314 1.30069 15.2377 -414.631 1.13918 15.4236 -422.414 1.3678 16.1002 -427.67 1.92125 16.3902 -433.253 2.36517 16.3368 -439.184 2.70045 15.977 -445.484 2.92782 15.3426 -452.181 3.0477 14.4609 -459.301 3.06022 13.3552 -466.878 2.96515 12.0454 -474.945 2.76186 10.5483 -483.541 2.44925 8.87789 -492.709 2.02572 7.04583 -502.498 1.48908 5.06137 -512.961 0.836511 2.93164 -524.161 0.0644145 0.661762 -536.165 -0.831634 -9.6443 -275.837 2.50881 -6.39681 -285.103 2.03934 -4.14575 -294.307 1.71491 -2.68756 -303.48 1.49481 -1.8617 -312.648 1.34805 -1.54002 -321.838 1.25086 -1.61916 -331.074 1.18495 -2.01492 -340.38 1.13622 -2.65806 -349.78 1.09382 -3.49116 -359.298 1.04942 -4.46618 -368.958 0.996675 -5.5426 -378.783 0.930791 -6.68592 -388.801 0.848232 -7.86652 -399.035 0.746448 -9.05871 -409.515 0.623687 -9.42645 -417.749 0.843576 -9.23499 -423.74 1.34849 -9.35579 -430.027 1.7558 -9.75316 -436.635 2.06679 -10.3963 -443.592 2.28265 -11.2589 -450.925 2.40435 -12.3181 -458.668 2.43262 -13.5543 -466.856 2.36793 -14.9511 -475.525 2.21044 -16.4942 -484.721 1.95994 -18.1718 -494.488 1.61582 -19.9743 -504.881 1.17702 -21.8937 -515.958 0.641948 -23.9242 -527.785 0.00844458 -26.0613 -540.437 -0.726334 -18.4689 -264.944 1.3091 -17.2329 -274.877 0.987348 -16.7105 -284.678 0.778247 -16.7548 -294.383 0.6493 -17.2485 -304.026 0.57555 -18.097 -313.638 0.537774 -19.2235 -323.248 0.521148 -20.5648 -332.883 0.514255 -22.069 -342.57 0.508346 -23.6927 -352.337 0.496763 -25.3996 -362.208 0.474509 -27.1589 -372.211 0.437908 -28.9446 -382.373 0.384342 -30.7343 -392.722 0.312041 -32.5087 -403.287 0.219923 -33.4434 -411.856 0.42836 -33.769 -418.432 0.886505 -34.3452 -425.278 1.25793 -35.143 -432.421 1.54424 -36.1378 -439.891 1.74696 -37.3081 -447.721 1.86746 -38.6358 -455.945 1.90695 -40.1054 -464.601 1.86643 -41.7038 -473.731 1.74667 -43.4202 -483.379 1.54814 -45.2455 -493.598 1.27103 -47.1727 -504.442 0.915162 -49.1964 -515.976 0.479943 -51.3129 -528.269 -0.0356595 -53.52 -541.401 -0.633207 -27.8072 -254.564 0.42725 -28.2846 -264.98 0.2128 -29.2582 -275.215 0.0869467 -30.6218 -285.308 0.023252 -32.2898 -295.296 0.00130725 -34.1928 -305.212 0.00534285 -36.2743 -315.087 0.0231932 -38.4877 -324.951 0.0455145 -40.7945 -334.833 0.0651874 -43.1629 -344.76 0.0768576 -45.5661 -354.762 0.0765787 -47.9818 -364.865 0.0615323 -50.391 -375.098 0.0298092 -52.7778 -385.49 -0.019765 -55.1283 -396.07 -0.0877673 -56.6344 -404.873 0.107249 -57.4968 -411.902 0.520495 -58.5591 -419.177 0.856997 -59.7986 -426.726 1.11857 -61.1962 -434.583 1.30696 -62.7356 -442.782 1.42384 -64.4032 -451.36 1.47076 -66.1875 -460.357 1.44911 -68.0793 -469.816 1.36011 -70.0713 -479.787 1.20475 -72.1581 -490.321 0.983818 -74.3358 -501.479 0.697803 -76.6022 -513.326 0.346898 -78.957 -525.938 -0.0690508 -81.401 -539.397 -0.550593 -37.5057 -244.544 -0.204418 -39.4582 -255.302 -0.340965 -41.7373 -265.842 -0.407211 -44.2667 -276.207 -0.424936 -46.9845 -286.433 -0.411016 -49.8406 -296.555 -0.378514 -52.7943 -306.605 -0.337497 -55.8122 -316.614 -0.295668 -58.8666 -326.611 -0.258853 -61.9352 -336.625 -0.231376 -64.9991 -346.686 -0.216358 -68.0431 -356.822 -0.21595 -71.0544 -367.061 -0.231516 -74.0225 -377.433 -0.263779 -76.9387 -387.969 -0.312944 -79.0139 -396.917 -0.132747 -80.4228 -404.281 0.237486 -81.9904 -411.868 0.540129 -83.7001 -419.71 0.777113 -85.5379 -427.841 0.950342 -87.4923 -436.296 1.06167 -89.5541 -445.114 1.11285 -91.7162 -454.336 1.10556 -93.9735 -464.009 1.04132 -96.3225 -474.182 0.921492 -98.7615 -484.91 0.747286 -101.291 -496.256 0.519693 -103.912 -508.288 0.239482 -106.628 -521.084 -0.0928357 -109.445 -534.732 -0.47704 -47.4505 -234.771 -0.636953 -50.6838 -245.756 -0.717411 -54.1097 -256.499 -0.741765 -57.6744 -267.04 -0.7281 -61.3342 -277.416 -0.690461 -65.054 -287.663 -0.639727 -68.8054 -297.811 -0.584268 -72.5656 -307.893 -0.530459 -76.316 -317.938 -0.483082 -80.0418 -327.976 -0.445635 -83.7312 -338.035 -0.420584 -87.3747 -348.144 -0.409558 -90.9651 -358.334 -0.413503 -94.4965 -368.632 -0.432811 -97.965 -379.071 -0.467417 -100.602 -388.084 -0.303016 -102.559 -395.679 0.0260302 -104.642 -403.477 0.295919 -106.839 -411.51 0.508622 -109.143 -419.813 0.666106 -111.545 -428.422 0.770312 -114.041 -437.379 0.823123 -116.629 -446.724 0.826352 -119.307 -456.506 0.781715 -122.076 -466.775 0.690819 -124.938 -477.589 0.555142 -127.899 -489.01 0.376018 -130.963 -501.11 0.154618 -134.14 -513.968 -0.108071 -137.439 -527.676 -0.41127 -57.5557 -225.158 -0.909756 -61.9084 -236.28 -0.950567 -66.3471 -247.139 -0.946494 -70.8349 -257.777 -0.912595 -75.3424 -268.23 -0.860588 -79.8463 -278.531 -0.799544 -84.3282 -288.713 -0.736429 -88.7737 -298.806 -0.676519 -93.1718 -308.841 -0.62374 -97.5141 -318.846 -0.580919 -101.794 -328.851 -0.549999 -106.009 -338.883 -0.532201 -110.154 -348.974 -0.528157 -114.229 -359.151 -0.538018 -118.235 -369.447 -0.561535 -121.421 -378.456 -0.413