<?xml version="1.0"?> 
<VTKFile type="StructuredGrid" version="0.1"> 
<StructuredGrid WholeExtent="0 29 0 29 0 29"> 
<Piece Extent="0 29 0 29 0 29"> 
<PointData>
<DataArray type="Float32" Name="hfield" format="ascii" NumberOfComponents="3"> 
1.84457 1.58753 0.243613 1.93865 1.55544 0.157871 2.03406 1.49134 0.0817298 2.13101 1.3998 0.0136626 2.22968 1.28435 -0.04755 2.33027 1.14775 -0.102894 2.43299 0.992153 -0.153174 2.53807 0.819211 -0.199056 2.64573 0.630202 -0.241092 2.75623 0.426085 -0.279746 2.86982 0.207549 -0.315411 2.98679 -0.0249385 -0.34842 3.10744 -0.271109 -0.37906 3.23209 -0.530867 -0.407576 3.36111 -0.804277 -0.434182 4.05125 -0.897496 -0.365371 5.32073 -0.795872 -0.210127 6.62215 -0.690782 -0.0643309 7.95938 -0.584752 0.0728534 9.33661 -0.480143 0.202167 10.7584 -0.379199 0.324269 12.2299 -0.284089 0.439746 13.7566 -0.196946 0.549122 15.3447 -0.119908 0.65287 17.0011 -0.0551508 0.751412 18.7334 -0.00493515 0.845131 20.5504 0.0283569 0.934372 22.4618 0.0421733 1.01945 24.4788 0.0337399 1.10065 26.614 -2.46233e-14 1.17822 1.77439 1.53507 0.211054 1.83273 1.48299 0.137209 1.89375 1.40595 0.0712199 1.95734 1.30735 0.0119314 2.02348 1.18987 -0.0415974 2.09214 1.0556 -0.0901389 2.16338 0.90619 -0.134333 2.23725 0.742921 -0.174716 2.31384 0.566781 -0.211737 2.39329 0.37851 -0.24578 2.47572 0.178639 -0.277171 2.56131 -0.0324825 -0.306191 2.65026 -0.254665 -0.333082 2.74278 -0.487863 -0.358055 2.83913 -0.732162 -0.381293 3.53624 -0.75988 -0.320715 4.85076 -0.561983 -0.184341 6.19483 -0.364934 -0.0563999 7.5727 -0.170554 0.0638249 8.98899 0.0194456 0.17697 10.4487 0.203431 0.283606 11.9574 0.379812 0.38424 13.5211 0.547012 0.479333 15.1467 0.703436 0.569295 16.8416 0.847443 0.6545 18.6144 0.977311 0.735285 20.4747 1.0912 0.811957 22.4333 1.18711 0.884795 24.5026 1.26286 0.954052 26.697 1.31598 1.01996 1.71627 1.49469 0.183577 1.74447 1.426 0.119629 1.77621 1.33798 0.0622161 1.81123 1.23318 0.0104395 1.84934 1.11363 -0.036442 1.8904 0.980926 -0.0790455 1.93433 0.836327 -0.117889 1.98108 0.68082 -0.153409 2.03063 0.51516 -0.185979 2.08301 0.339909 -0.215918 2.13826 0.155463 -0.243499 2.19647 -0.0379287 -0.268963 2.25773 -0.240146 -0.292514 2.32219 -0.451187 -0.314334 2.39 -0.671163 -0.334583 3.08864 -0.638848 -0.281273 4.43327 -0.34957 -0.161569 5.80518 -0.0642236 -0.0493975 7.2089 0.216009 0.0558571 8.64938 0.490028 0.154747 10.132 0.756787 0.247765 11.6626 1.01527 0.335359 13.2478 1.26447 0.417928 14.8948 1.50338 0.495835 16.6118 1.73093 0.569411 18.4079 1.94602 0.638953 20.2935 2.14746 0.704735 22.2806 2.33392 0.767005 24.3825 2.50397 0.82599 26.6153 2.65593 0.8819 1.66739 1.46353 0.159943 1.66993 1.38105 0.104413 1.67661 1.28378 0.0543806 1.68705 1.17366 0.00913527 1.70097 1.05219 -0.0319181 1.71813 0.920614 -0.0692797 1.73837 0.779874 -0.103374 1.76155 0.630718 -0.134562 1.78757 0.473714 -0.163156 1.81639 0.309274 -0.189423 1.84798 0.137681 -0.213595 1.88233 -0.0409001 -0.235877 1.91948 -0.226412 -0.256445 1.95948 -0.418894 -0.275457 2.00242 -0.618479 -0.29305 2.69823 -0.530976 -0.24621 4.06061 -0.155044 -0.141333 5.44803 0.214848 -0.0431786 6.86526 0.578114 0.0487857 8.31747 0.93423 0.135039 9.81032 1.28272 0.216013 11.35 1.62315 0.292098 12.9434 1.95509 0.363644 14.5982 2.27814 0.430974 16.323 2.59187 0.494378 18.1275 2.89586 0.55412 20.0228 3.18965 0.610445 22.0217 3.47273 0.663572 24.1388 3.74454 0.713707 26.3912 4.00441 0.761035 1.62573 1.4396 0.139271 1.60631 1.3457 0.091038 1.59143 1.24072 0.0474651 1.58066 1.12611 0.00798018 1.57365 1.00301 -0.0278998 1.57009 0.872335 -0.0605851 1.56976 0.734801 -0.0904264 1.57245 0.590955 -0.117726 1.57801 0.441208 -0.142744 1.58633 0.28585 -0.165707 1.59732 0.125065 -0.186814 1.61091 -0.0410553 -0.206239 1.62708 -0.212508 -0.224134 1.64581 -0.389371 -0.240635 1.66711 -0.571797 -0.255861 2.35655 -0.433404 -0.214831 3.72637 0.0246536 -0.123235 5.11901 0.475344 -0.0376214 6.53939 0.918635 0.0424725 7.99287 1.35456 0.117463 9.4853 1.78319 0.187727 11.0231 2.20466 0.253606 12.6134 2.61916 0.315409 14.2642 3.0269 0.373419 15.9846 3.42814 0.427892 17.7846 3.82319 0.479064 19.676 4.21241 0.52715 21.6722 4.5962 0.572348 23.7888 4.97503 0.614839 26.0441 5.3494 0.654791 1.58986 1.42145 0.120916 1.55154 1.31815 0.0791174 1.51807 1.20682 0.041282 1.48894 1.08854 0.00694471 1.46378 0.964152 -0.02429 1.44223 0.834321 -0.052761 1.42401 0.699563 -0.07876 1.40888 0.560266 -0.10254 1.39665 0.41671 -0.124321 1.38713 0.26908 -0.144294 1.3802 0.117479 -0.16263 1.37573 -0.0380694 -0.179476 1.37365 -0.197608 -0.194964 1.37389 -0.36125 -0.209212 1.37639 -0.52917 -0.222324 2.05656 -0.343707 -0.186555 3.42517 0.19217 -0.106941 4.81437 0.719975 -0.032623 6.2292 1.2402 0.0368005 7.67511 1.75339 0.101691 9.1581 2.26019 0.162378 10.6847 2.76128 0.219157 12.2624 3.25746 0.272302 13.8992 3.74959 0.322061 15.6046 4.23864 0.368658 17.3889 4.72572 0.412304 19.2645 5.21206 0.453187 21.2452 5.69905 0.491483 23.3475 6.18832 0.527354 25.5905 6.68173 0.560948 1.5587 1.40802 0.104392 1.50409 1.29706 0.0683551 1.45452 1.18062 0.0356863 1.40949 1.05945 0.00600583 1.36856 0.934164 -0.0210119 1.33137 0.805224 -0.0456475 1.2976 0.672981 -0.0681443 1.26696 0.53769 -0.0887141 1.23923 0.399521 -0.107542 1.21419 0.25857 -0.124791 1.19166 0.114867 -0.140605 1.17149 -0.0316192 -0.155112 1.15354 -0.180976 -0.168423 1.1377 -0.333347 -0.18064 1.12387 -0.488927 -0.191853 1.79234 -0.259798 -0.160887 3.15244 0.349821 -0.0921661 4.53088 0.951162 -0.0280957 5.93277 1.5452 0.0316695 7.36364 2.13301 0.0874426 8.82954 2.71574 0.139508 10.3372 3.29465 0.188126 11.8939 3.87113 0.233533 13.5082 4.44671 0.275945 15.1895 5.0231 0.31556 16.9486 5.60222 0.352561 18.7979 6.18624 0.387115 20.7518 6.77764 0.419378 22.8274 7.37928 0.44949 25.0445 7.99452 0.477584 1.53145 1.3985 0.0893247 1.46277 1.28144 0.0585202 1.39928 1.16099 0.0305639 1.34044 1.03769 0.00514517 1.28582 0.911928 -0.0180038 1.23502 0.784014 -0.0391151 1.1877 0.654161 -0.058391 1.14356 0.522509 -0.0760084 1.10232 0.389136 -0.0921229 1.06375 0.254061 -0.106872 1.02764 0.117253 -0.120376 0.993787 -0.0213698 -0.132745 0.962027 -0.161933 -0.144074 0.932204 -0.304606 -0.154449 0.904177 -0.449606 -0.163948 1.55892 -0.179846 -0.137405 2.90425 0.499665 -0.0786649 4.2657 1.17109 -0.023964 5.64838 1.83588 0.026993 7.05784 2.49558 0.0744748 8.50015 3.15185 0.118726 9.98202 3.80651 0.159971 11.5109 4.46155 0.198413 13.0953 5.11917 0.23424 14.7447 5.78183 0.267625 16.4701 6.45228 0.298724 18.2841 7.13367 0.327685 20.2014 7.82962 0.354641 22.2392 8.54433 0.379717 24.4182 9.28272 0.403028 1.50751 1.39229 0.0754188 1.4267 1.27051 0.049429 1.35115 1.14709 0.0258229 1.28034 1.02238 0.00434783 1.21382 0.896595 -0.0152151 1.15118 0.769913 -0.0330566 1.09206 0.642432 -0.0493434 1.03613 0.514197 -0.0642222 0.983118 0.385206 -0.0778222 0.932746 0.255412 -0.0902579 0.884779 0.12473 -0.101631 0.838996 -0.0069639 -0.112033 0.795193 -0.139829 -0.121544 0.753184 -0.27406 -0.130237 0.712789 -0.409892 -0.138177 1.35202 -0.102214 -0.115744 2.67721 0.643555 -0.0662254 4.01632 1.38176 -0.0201621 5.37441 2.11429 0.0226958 6.75701 2.84315 0.0625761 8.17015 3.57049 0.0996865 9.62053 4.29868 0.134217 11.1156 5.0303 0.166342 12.6637 5.7682 0.196221 14.2745 6.51559 0.224002 15.959 7.2761 0.249819 17.7297 8.05387 0.273798 19.6015 8.85368 0.296054 21.5919 9.68112 0.316694 23.7218 10.5428 0.335817 1.48643 1.38893 0.0624361 1.39518 1.26369 0.0409315 1.30922 1.13827 0.0213876 1.22805 1.01285 0.00360145 1.15119 0.887522 -0.0126036 1.07824 0.762341 -0.0273819 1.00883 0.637309 -0.0408692 0.942621 0.512392 -0.0531847 0.879312 0.387518 -0.0644344 0.818621 0.262586 -0.0747122 0.760287 0.137463 -0.0841017 0.704066 0.01199 -0.0926778 0.649731 -0.114023 -0.100508 0.597066 -0.240793 -0.107651 0.545862 -0.36857 -0.114164 1.16801 -0.0254055 -0.0955828 2.4684 0.78319 -0.0546614 3.7805 1.58502 -0.0166324 5.10935 2.38236 0.0187117 6.46038 3.17767 0.0515601 7.83955 3.97359 0.0820856 9.25347 4.77298 0.110447 10.7095 5.57901 0.136789 12.216 6.3952 0.161245 13.7823 7.22548 0.18394 15.4194 8.07435 0.204985 17.1399 8.94695 0.224487 18.9585 9.84925 0.242541 20.8928 10.7882 0.259237 22.9636 11.7723 0.27466 1.46784 1.38806 0.05018 1.36767 1.26053 0.032903 1.27277 1.13403 0.0171947 1.18264 1.0086 0.00289558 1.09682 0.884237 -0.0101334 1.01491 0.760882 -0.0220142 0.936521 0.638461 -0.0328542 0.861325 0.51687 -0.0427484 0.789003 0.395981 -0.0517809 0.719262 0.275646 -0.0600267 0.651827 0.155692 -0.0675529 0.586438 0.0359277 -0.0744193 0.522848 -0.0838613 -0.0806798 0.460817 -0.203912 -0.0863831 0.400112 -0.324487 -0.0915729 1.00376 0.0519791 -0.0766368 2.2752 0.92015 -0.0438071 3.55623 1.78257 -0.0133233 4.85175 2.6419 0.0149816 6.1671 3.50101 0.0412603 7.50812 4.36299 0.0656524 8.88127 5.2312 0.0882861 10.2938 6.10938 0.109279 11.7538 7.00167 0.128739 13.2705 7.91275 0.146767 14.8548 8.84795 0.163454 16.5189 9.81341 0.178885 18.2775 10.8163 0.19314 20.1478 11.865 0.206292 22.1506 12.9695 0.218408 1.45148 1.38943 0.038484 1.34377 1.2607 0.0252373 1.24124 1.13401 0.0131897 1.14342 1.00928 0.00222121 1.04985 0.886411 -0.00777325 0.960144 0.76526 -0.016886 0.873926 0.645688 -0.0251985 0.790856 0.527532 -0.0327829 0.710616 0.410616 -0.0397033 0.632905 0.294751 -0.046017 0.557439 0.179732 -0.0517752 0.483947 0.0653408 -0.0570236 0.412167 -0.0486585 -0.0618038 0.341842 -0.162518 -0.0661529 0.27272 -0.276511 -0.0701048 0.856528 0.131283 -0.05865 2.09533 1.05593 -0.0335133 3.34164 1.97603 -0.0101887 4.60022 2.8946 0.0114521 5.87626 3.8149 0.0315265 7.17544 4.74045 0.0501421 8.50402 5.67509 0.0673975 9.86903 6.62308 0.0833836 11.2784 7.58918 0.0981839 12.7411 8.57878 0.111876 14.2676 9.59802 0.12453 15.8699 10.654 0.136213 17.5623 11.7551 0.146986 19.3617 12.911 0.156905 21.2883 14.1336 0.166022 1.43715 1.39283 0.0272037 1.32315 1.26396 0.0178414 1.21419 1.13796 0.00932485 1.10981 1.01464 0.00157037 1.00957 0.893831 -0.00549549 0.913109 0.775321 -0.0119374 0.820054 0.658912 -0.0178124 0.730072 0.544393 -0.0231713 0.642845 0.431549 -0.0280591 0.558075 0.320156 -0.0325162 0.475472 0.209983 -0.0365786 0.394758 0.100789 -0.0402789 0.315661 -0.00767826 -0.0436461 0.237914 -0.115683 -0.0467068 0.161248 -0.223507 -0.0494847 0.723937 0.213828 -0.0413882 1.92673 1.19198 -0.0236431 3.13501 2.16695 -0.00718582 4.35338 3.14209 0.00807442 5.58685 4.12102 0.0222208 6.84088 5.10766 0.0353297 8.12152 6.10629 0.047471 9.43552 7.1217 0.0587094 10.7905 8.15922 0.0691041 12.1952 9.2249 0.07871 13.6595 10.3257 0.0875778 15.1952 11.4697 0.0957545 16.8159 12.6662 0.103284 18.5381 13.9264 0.110205 20.3811 15.2638 0.116557 1.42472 1.39812 0.0162102 1.30561 1.27015 0.0106319 1.1913 1.1457 0.00555696 1.08138 1.02454 0.000935835 0.975448 0.906397 -0.00327488 0.873138 0.791023 -0.00711346 0.774109 0.678167 -0.0106138 0.678036 0.567581 -0.013806 0.584611 0.459014 -0.0167168 0.493538 0.352216 -0.0193702 0.404529 0.246935 -0.0217876 0.317305 0.142913 -0.0239885 0.231588 0.0398843 -0.0259901 0.147104 -0.0624236 -0.0278083 0.0635722 -0.164296 -0.0294573 0.603878 0.300945 -0.0246332 1.76753 1.32973 -0.0140691 2.93473 2.35683 -0.00427516 4.1099 3.38591 0.00480282 5.29781 4.42094 0.0132145 6.50369 5.46618 0.0210054 7.73331 6.52637 0.0282174 8.99312 7.60675 0.0348891 10.2904 8.7132 0.0410559 11.6334 9.85242 0.0467506 13.0317 11.0321 0.0520037 14.4963 12.2611 0.0568432 16.0405 13.55 0.0612952 17.6796 14.9112 0.0653838 19.4325 16.3595 0.0691315 1.41409 1.40523 0.00538494 1.29097 1.27916 0.00353195 1.17234 1.15717 0.00184605 1.05783 1.03892 0.00031089 0.947059 0.924107 -0.00108792 0.839709 0.812429 -0.00236306 0.735455 0.703597 -0.00352576 0.633991 0.59733 -0.00458598 0.535023 0.493352 -0.00555262 0.438263 0.391393 -0.00643363 0.343432 0.291182 -0.00723614 0.250251 0.19245 -0.00796656 0.158444 0.0949234 -0.00863068 0.0677317 -0.00167539 -0.00923372 -0.022171 -0.0976334 -0.00978044 0.494467 0.394009 -0.00817801 1.61602 1.47059 -0.00467037 2.73926 2.54711 -0.00141904 3.8684 3.62754 0.00159401 5.00797 4.71612 0.00438529 6.16292 5.81749 0.00696994 7.33869 6.93675 0.00936188 8.54138 8.07958 0.0115739 9.77785 9.25239 0.013618 11.0559 10.4624 0.0155048 12.3845 11.7181 0.0172447 13.7742 13.0292 0.0188468 15.2372 14.407 0.02032 16.7882 15.8652 0.0216722 18.4449 17.4202 0.0229109 1.40523 1.41409 -0.00538494 1.27916 1.29097 -0.00353195 1.15717 1.17234 -0.00184605 1.03892 1.05783 -0.00031089 0.924107 0.947059 0.00108792 0.812429 0.839709 0.00236306 0.703597 0.735455 0.00352576 0.59733 0.633991 0.00458598 0.493352 0.535023 0.00555262 0.391393 0.438263 0.00643363 0.291182 0.343432 0.00723614 0.19245 0.250251 0.00796656 0.0949234 0.158444 0.00863068 -0.00167539 0.0677317 0.00923372 -0.0976334 -0.022171 0.00978044 0.394009 0.494467 0.00817801 1.47059 1.61602 0.00467037 2.54711 2.73926 0.00141904 3.62754 3.8684 -0.00159401 4.71612 5.00797 -0.00438529 5.81749 6.16292 -0.00696994 6.93675 7.33869 -0.00936188 8.07958 8.54138 -0.0115739 9.25239 9.77785 -0.013618 10.4624 11.0559 -0.0155048 11.7181 12.3845 -0.0172447 13.0292 13.7742 -0.0188468 14.407 15.2372 -0.02032 15.8652 16.7882 -0.0216722 17.4202 18.4449 -0.0229109 1.39812 1.42472 -0.0162102 1.27015 1.30561 -0.0106319 1.1457 1.1913 -0.00555696 1.02454 1.08138 -0.000935835 0.906397 0.975448 0.00327488 0.791023 0.873138 0.00711346 0.678167 0.774109 0.0106138 0.567581 0.678036 0.013806 0.459014 0.584611 0.0167168 0.352216 0.493538 0.0193702 0.246935 0.404529 0.0217876 0.142913 0.317305 0.0239885 0.0398843 0.231588 0.0259901 -0.0624236 0.147104 0.0278083 -0.164296 0.0635722 0.0294573 0.300945 0.603878 0.0246332 1.32973 1.76753 0.0140691 2.35683 2.93473 0.00427516 3.38591 4.1099 -0.00480282 4.42094 5.29781 -0.0132145 5.46618 6.50369 -0.0210054 6.52637 7.73331 -0.0282174 7.60675 8.99312 -0.0348891 8.7132 10.2904 -0.0410559 9.85242 11.6334 -0.0467506 11.0321 13.0317 -0.0520037 12.2611 14.4963 -0.0568432 13.55 16.0405 -0.0612952 14.9112 17.6796 -0.0653838 16.3595 19.4325 -0.0691315 1.39283 1.43715 -0.0272037 1.26396 1.32315 -0.0178414 1.13796 1.21419 -0.00932485 1.01464 1.10981 -0.00157037 0.893831 1.00957 0.00549549 0.775321 0.913109 0.0119374 0.658912 0.820054 0.0178124 0.544393 0.730072 0.0231713 0.431549 0.642845 0.0280591 0.320156 0.558075 0.0325162 0.209983 0.475472 0.0365786 0.100789 0.394758 0.0402789 -0.00767826 0.315661 0.0436461 -0.115683 0.237914 0.0467068 -0.223507 0.161248 0.0494847 0.213828 0.723937 0.0413882 1.19198 1.92673 0.0236431 2.16695 3.13501 0.00718582 3.14209 4.35338 -0.00807442 4.12102 5.58685 -0.0222208 5.10766 6.84088 -0.0353297 6.10629 8.12152 -0.047471 7.1217 9.43552 -0.0587094 8.15922 10.7905 -0.0691041 9.2249 12.1952 -0.07871 10.3257 13.6595 -0.0875778 11.4697 15.1952 -0.0957545 12.6662 16.8159 -0.103284 13.9264 18.5381 -0.110205 15.2638 20.3811 -0.116557 1.38943 1.45148 -0.038484 1.2607 1.34377 -0.0252373 1.13401 1.24124 -0.0131897 1.00928 1.14342 -0.00222121 0.886411 1.04985 0.00777325 0.76526 0.960144 0.016886 0.645688 0.873926 0.0251985 0.527532 0.790856 0.0327829 0.410616 0.710616 0.0397033 0.294751 0.632905 0.046017 0.179732 0.557439 0.0517752 0.0653408 0.483947 0.0570236 -0.0486585 0.412167 0.0618038 -0.162518 0.341842 0.0661529 -0.276511 0.27272 0.0701048 0.131283 0.856528 0.05865 1.05593 2.09533 0.0335133 1.97603 3.34164 0.0101887 2.8946 4.60022 -0.0114521 3.8149 5.87626 -0.0315265 4.74045 7.17544 -0.0501421 5.67509 8.50402 -0.0673975 6.62308 9.86903 -0.0833836 7.58918 11.2784 -0.0981839 8.57878 12.7411 -0.111876 9.59802 14.2676 -0.12453 10.654 15.8699 -0.136213 11.7551 17.5623 -0.146986 12.911 19.3617 -0.156905 14.1336 21.2883 -0.166022 1.38806 1.46784 -0.05018 1.26053 1.36767 -0.032903 1.13403 1.27277 -0.0171947 1.0086 1.18264 -0.00289558 0.884237 1.09682 0.0101334 0.760882 1.01491 0.0220142 0.638461 0.936521 0.0328542 0.51687 0.861325 0.0427484 0.395981 0.789003 0.0517809 0.275646 0.719262 0.0600267 0.155692 0.651827 0.0675529 0.0359277 0.586438 0.0744193 -0.0838613 0.522848 0.0806798 -0.203912 0.460817 0.0863831 -0.324487 0.400112 0.0915729 0.0519791 1.00376 0.0766368 0.92015 2.2752 0.0438071 1.78257 3.55623 0.0133233 2.6419 4.85175 -0.0149816 3.50101 6.1671 -0.0412603 4.36299 7.50812 -0.0656524 5.2312 8.88127 -0.0882861 6.10938 10.2938 -0.109279 7.00167 11.7538 -0.128739 7.91275 13.2705 -0.146767 8.84795 14.8548 -0.163454 9.81341 16.5189 -0.178885 10.8163 18.2775 -0.19314 11.865 20.1478 -0.206292 12.9695 22.1506 -0.218408 1.38893 1.48643 -0.0624361 1.26369 1.39518 -0.0409315 1.13827 1.30922 -0.0213876 1.01285 1.22805 -0.00360145 0.887522 1.15119 0.0126036 0.762341 1.07824 0.0273819 0.637309 1.00883 0.0408692 0.512392 0.942621 0.0531847 0.387518 0.879312 0.0644344 0.262586 0.818621 0.0747122 0.137463 0.760287 0.0841017 0.01199 0.704066 0.0926778 -0.114023 0.649731 0.100508 -0.240793 0.597066 0.107651 -0.36857 0.545862 0.114164 -0.0254055 1.16801 0.0955828 0.78319 2.4684 0.0546614 1.58502 3.7805 0.0166324 2.38236 5.10935 -0.0187117 3.17767 6.46038 -0.0515601 3.97359 7.83955 -0.0820856 4.77298 9.25347 -0.110447 5.57901 10.7095 -0.136789 6.3952 12.216 -0.161245 7.22548 13.7823 -0.18394 8.07435 15.4194 -0.204985 8.94695 17.1399 -0.224487 9.84925 18.9585 -0.242541 10.7882 20.8928 -0.259237 11.7723 22.9636 -0.27466 1.39229 1.50751 -0.0754188 1.27051 1.4267 -0.049429 1.14709 1.35115 -0.0258229 1.02238 1.28034 -0.00434783 0.896595 1.21382 0.0152151 0.769913 1.15118 0.0330566 0.642432 1.09206 0.0493434 0.514197 1.03613 0.0642222 0.385206 0.983118 0.0778222 0.255412 0.932746 0.0902579 0.12473 0.884779 0.101631 -0.0069639 0.838996 0.112033 -0.139829 0.795193 0.121544 -0.27406 0.753184 0.130237 -0.409892 0.712789 0.138177 -0.102214 1.35202 0.115744 0.643555 2.67721 0.0662254 1.38176 4.01632 0.0201621 2.11429 5.37441 -0.0226958 2.84315 6.75701 -0.0625761 3.57049 8.17015 -0.0996865 4.29868 9.62053 -0.134217 5.0303 11.1156 -0.166342 5.7682 12.6637 -0.196221 6.51559 14.2745 -0.224002 7.2761 15.959 -0.249819 8.05387 17.7297 -0.273798 8.85368 19.6015 -0.296054 9.68112 21.5919 -0.316694 10.5428 23.7218 -0.335817 1.3985 1.53145 -0.0893247 1.28144 1.46277 -0.0585202 1.16099 1.39928 -0.0305639 1.03769 1.34044 -0.00514517 0.911928 1.28582 0.0180038 0.784014 1.23502 0.0391151 0.654161 1.1877 0.058391 0.522509 1.14356 0.0760084 0.389136 1.10232 0.0921229 0.254061 1.06375 0.106872 0.117253 1.02764 0.120376 -0.0213698 0.993787 0.132745 -0.161933 0.962027 0.144074 -0.304606 0.932204 0.154449 -0.449606 0.904177 0.163948 -0.179846 1.55892 0.137405 0.499665 2.90425 0.0786649 1.17109 4.2657 0.023964 1.83588 5.64838 -0.026993 2.49558 7.05784 -0.0744748 3.15185 8.50015 -0.118726 3.80651 9.98202 -0.159971 4.46155 11.5109 -0.198413 5.11917 13.0953 -0.23424 5.78183 14.7447 -0.267625 6.45228 16.4701 -0.298724 7.13367 18.2841 -0.327685 7.82962 20.2014 -0.354641 8.54433 22.2392 -0.379717 9.28272 24.4182 -0.403028 1.40802 1.5587 -0.104392 1.29706 1.50409 -0.0683551 1.18062 1.45452 -0.0356863 1.05945 1.40949 -0.00600583 0.934164 1.36856 0.0210119 0.805224 1.33137 0.0456475 0.672981 1.2976 0.0681443 0.53769 1.26696 0.0887141 0.399521 1.23923 0.107542 0.25857 1.21419 0.124791 0.114867 1.19166 0.140605 -0.0316192 1.17149 0.155112 -0.180976 1.15354 0.168423 -0.333347 1.1377 0.18064 -0.488927 1.12387 0.191853 -0.259798 1.79234 0.160887 0.349821 3.15244 0.0921661 0.951162 4.53088 0.0280957 1.5452 5.93277 -0.0316695 2.13301 7.36364 -0.0874426 2.71574 8.82954 -0.139508 3.29465 10.3372 -0.188126 3.87113 11.8939 -0.233533 4.44671 13.5082 -0.275945 5.0231 15.1895 -0.31556 5.60222 16.9486 -0.352561 6.18624 18.7979 -0.387115 6.77764 20.7518 -0.419378 7.37928 22.8274 -0.44949 7.99452 25.0445 -0.477584 1.42145 1.58986 -0.120916 1.31815 1.55154 -0.0791174 1.20682 1.51807 -0.041282 1.08854 1.48894 -0.00694471 0.964152 1.46378 0.02429 0.834321 1.44223 0.052761 0.699563 1.42401 0.07876 0.560266 1.40888 0.10254 0.41671 1.39665 0.124321 0.26908 1.38713 0.144294 0.117479 1.3802 0.16263 -0.0380694 1.37573 0.179476 -0.197608 1.37365 0.194964 -0.36125 1.37389 0.209212 -0.52917 1.37639 0.222324 -0.343707 2.05656 0.186555 0.19217 3.42517 0.106941 0.719975 4.81437 0.032623 1.2402 6.2292 -0.0368005 1.75339 7.67511 -0.101691 2.26019 9.1581 -0.162378 2.76128 10.6847 -0.219157 3.25746 12.2624 -0.272302 3.74959 13.8992 -0.322061 4.23864 15.6046 -0.368658 4.72572 17.3889 -0.412304 5.21206 19.2645 -0.453187 5.69905 21.2452 -0.491483 6.18832 23.3475 -0.527354 6.68173 25.5905 -0.560948 1.4396 1.62573 -0.139271 1.3457 1.60631 -0.091038 1.24072 1.59143 -0.0474651 1.12611 1.58066 -0.00798018 1.00301 1.57365 0.0278998 0.872335 1.57009 0.0605851 0.734801 1.56976 0.0904264 0.590955 1.57245 0.117726 0.441208 1.57801 0.142744 0.28585 1.58633 0.165707 0.125065 1.59732 0.186814 -0.0410553 1.61091 0.206239 -0.212508 1.62708 0.224134 -0.389371 1.64581 0.240635 -0.571797 1.66711 0.255861 -0.433404 2.35655 0.214831 0.0246536 3.72637 0.123235 0.475344 5.11901 0.0376214 0.918635 6.53939 -0.0424725 1.35456 7.99287 -0.117463 1.78319 9.4853 -0.187727 2.20466 11.0231 -0.253606 2.61916 12.6134 -0.315409 3.0269 14.2642 -0.373419 3.42814 15.9846 -0.427892 3.82319 17.7846 -0.479064 4.21241 19.676 -0.52715 4.5962 21.6722 -0.572348 4.97503 23.7888 -0.614839 5.3494 26.0441 -0.654791 1.46353 1.66739 -0.159943 1.38105 1.66993 -0.104413 1.28378 1.67661 -0.0543806 1.17366 1.68705 -0.00913527 1.05219 1.70097 0.0319181 0.920614 1.71813 0.0692797 0.779874 1.73837 0.103374 0.630718 1.76155 0.134562 0.473714 1.78757 0.163156 0.309274 1.81639 0.189423 0.137681 1.84798 0.213595 -0.0409001 1.88233 0.235877 -0.226412 1.91948 0.256445 -0.418894 1.95948 0.275457 -0.618479 2.00242 0.29305 -0.530976 2.69823 0.24621 -0.155044 4.06061 0.141333 0.214848 5.44803 0.0431786 0.578114 6.86526 -0.0487857 0.93423 8.31747 -0.135039 1.28272 9.81032 -0.216013 1.62315 11.35 -0.292098 1.95509 12.9434 -0.363644 2.27814 14.5982 -0.430974 2.59187 16.323 -0.494378 2.89586 18.1275 -0.55412 3.18965 20.0228 -0.610445 3.47273 22.0217 -0.663572 3.74454 24.1388 -0.713707 4.00441 26.3912 -0.761035 1.49469 1.71627 -0.183577 1.426 1.74447 -0.119629 1.33798 1.77621 -0.0622161 1.23318 1.81123 -0.0104395 1.11363 1.84934 0.036442 0.980926 1.8904 0.0790455 0.836327 1.93433 0.117889 0.68082 1.98108 0.153409 0.51516 2.03063 0.185979 0.339909 2.08301 0.215918 0.155463 2.13826 0.243499 -0.0379287 2.19647 0.268963 -0.240146 2.25773 0.292514 -0.451187 2.32219 0.314334 -0.671163 2.39 0.334583 -0.638848 3.08864 0.281273 -0.34957 4.43327 0.161569 -0.0642236 5.80518 0.0493975 0.216009 7.2089 -0.0558571 0.490028 8.64938 -0.154747 0.756787 10.132 -0.247765 1.01527 11.6626 -0.335359 1.26447 13.2478 -0.417928 1.50338 14.8948 -0.495835 1.73093 16.6118 -0.569411 1.94602 18.4079 -0.638953 2.14746 20.2935 -0.704735 2.33392 22.2806 -0.767005 2.50397 24.3825 -0.82599 2.65593 26.6153 -0.8819 1.53507 1.77439 -0.211054 1.48299 1.83273 -0.137209 1.40595 1.89375 -0.0712199 1.30735 1.95734 -0.0119314 1.18987 2.02348 0.0415974 1.0556 2.09214 0.0901389 0.90619 2.16338 0.134333 0.742921 2.23725 0.174716 0.566781 2.31384 0.211737 0.37851 2.39329 0.24578 0.178639 2.47572 0.277171 -0.0324825 2.56131 0.306191 -0.254665 2.65026 0.333082 -0.487863 2.74278 0.358055 -0.732162 2.83913 0.381293 -0.75988 3.53624 0.320715 -0.561983 4.85076 0.184341 -0.364934 6.19483 0.0563999 -0.170554 7.5727 -0.0638249 0.0194456 8.98899 -0.17697 0.203431 10.4487 -0.283606 0.379812 11.9574 -0.38424 0.547012 13.5211 -0.479333 0.703436 15.1467 -0.569295 0.847443 16.8416 -0.6545 0.977311 18.6144 -0.735285 1.0912 20.4747 -0.811957 1.18711 22.4333 -0.884795 1.26286 24.5026 -0.954052 1.31598 26.697 -1.01996 1.58753 1.84457 -0.243613 1.55544 1.93865 -0.157871 1.49134 2.03406 -0.0817298 1.3998 2.13101 -0.0136626 1.28435 2.22968 0.04755 1.14775 2.33027 0.102894 0.992153 2.43299 0.153174 0.819211 2.53807 0.199056 0.630202 2.64573 0.241092 0.426085 2.75623 0.279746 0.207549 2.86982 0.315411 -0.0249385 2.98679 0.34842 -0.271109 3.10744 0.37906 -0.530867 3.23209 0.407576 -0.804277 3.36111 0.434182 -0.897496 4.05125 0.365371 -0.795872 5.32073 0.210127 -0.690782 6.62215 0.0643309 -0.584752 7.95938 -0.0728534 -0.480143 9.33661 -0.202167 -0.379199 10.7584 -0.324269 -0.284089 12.2299 -0.439746 -0.196946 13.7566 -0.549122 -0.119908 15.3447 -0.65287 -0.0551508 17.0011 -0.751412 -0.00493515 18.7334 -0.845131 0.0283569 20.5504 -0.934372 0.0421733 22.4618 -1.01945 0.0337399 24.4788 -1.10065 -2.46233e-14 26.614 -1.17822 -79.6059 3.44776 1.63156 -82.7987 3.82941 1.42414 -85.9994 4.12141 1.27401 -89.205 4.35844 1.17113 -92.4122 4.5675 1.10799 -95.6177 4.77003 1.07889 -98.8185 4.98333 1.07947 -102.011 5.22157 1.1064 -105.193 5.49657 1.15712 -108.361 5.81826 1.22969 -111.511 6.19508 1.32263 -114.643 6.63433 1.43486 -117.752 7.14234 1.56562 -120.836 7.72466 1.71439 -123.894 8.38621 1.88088 -128.014 8.67859 2.07212 -133.196 8.42249 2.24814 -138.35 8.03407 2.38628 -143.474 7.53849 2.48418 -148.567 6.95749 2.53974 -153.626 6.3099 2.55111 -158.654 5.61197 2.51659 -163.65 4.87771 2.43464 -168.616 4.11911 2.30384 -173.557 3.34642 2.12285 -178.477 2.56825 1.89034 -183.382 1.79177 1.60499 -188.282 1.02286 1.26546 -193.185 0.266121 0.870287 -198.106 -0.474939 0.417869 -76.7833 0.542578 0.936743 -80.0486 0.504017 0.80815 -83.3112 0.415266 0.721548 -86.5691 0.302082 0.67005 -89.8199 0.184953 0.648444 -93.0611 0.0804594 0.652755 -96.2899 0.00222254 0.679946 -99.5035 -0.03841 0.727698 -102.699 -0.0318718 0.794253 -105.874 0.0299889 0.878294 -109.025 0.154184 0.978861 -112.15 0.346798 1.09528 -115.245 0.613148 1.22712 -118.31 0.957916 1.37415 -121.341 1.38525 1.53631 -125.676 1.31704 1.70935 -131.301 0.613866 1.85869 -136.872 -0.169144 1.97535 -142.387 -1.01045 2.05751 -147.845 -1.89137 2.10363 -153.246 -2.79577 2.11239 -158.589 -3.70968 2.08267 -163.876 -4.62113 2.01349 -169.108 -5.51989 1.90403 -174.29 -6.3973 1.75353 -179.426 -7.24613 1.56133 -184.523 -8.06048 1.32677 -189.589 -8.8356 1.0492 -194.635 -9.56787 0.727929 -199.673 -10.2547 0.362159 -74.0632 -2.46523 0.421179 -77.369 -2.86606 0.348132 -80.6648 -3.28884 0.306377 -83.9491 -3.71388 0.291054 -87.22 -4.12517 0.298463 -90.4751 -4.50955 0.325784 -93.7118 -4.85603 0.37087 -96.9275 -5.15532 0.432099 -100.119 -5.39947 0.508265 -103.285 -5.58167 0.598492 -106.42 -5.69598 0.702176 -109.524 -5.73723 0.818935 -112.592 -5.70087 0.948572 -115.624 -5.58288 1.09105 -118.616 -5.37973 1.24645 -123.112 -5.80014 1.40214 -129.085 -6.94911 1.52823 -134.981 -8.13274 1.6262 -140.8 -9.33253 1.69471 -146.539 -10.5324 1.73265 -152.199 -11.7185 1.73915 -157.779 -12.879 1.71356 -163.28 -14.0035 1.65535 -168.704 -15.0834 1.56416 -174.055 -16.1117 1.43973 -179.338 -17.0823 1.28186 -184.558 -17.9906 1.09044 -189.726 -18.8329 0.865335 -194.85 -19.6068 0.60644 -199.945 -20.3106 0.313583 -71.4088 -5.53867 0.0449913 -74.731 -6.25598 0.0109607 -78.0381 -6.97483 0.000550633 -81.3288 -7.67971 0.0102451 -84.601 -8.35781 0.0373674 -87.8525 -8.99838 0.0798841 -91.0806 -9.59235 0.136262 -94.2828 -10.1319 0.205365 -97.456 -10.6104 0.286371 -100.598 -11.0218 0.378714 -103.704 -11.3612 0.48204 -106.774 -11.6239 0.596169 -109.803 -11.8061 0.721067 -112.79 -11.9043 0.856826 -115.732 -11.9153 1.00365 -120.34 -12.678 1.1429 -126.579 -14.2675 1.24879 -132.722 -15.8529 1.33059 -138.767 -17.4182 1.3873 -144.713 -18.9495 1.41822 -150.56 -20.4349 1.42282 -156.307 -21.8641 1.40081 -161.955 -23.2287 1.35202 -167.506 -24.5213 1.27646 -172.963 -25.7361 1.1742 -178.332 -26.8685 1.04546 -183.618 -27.9148 0.890471 -188.831 -28.8727 0.709536 -193.98 -29.7408 0.502961 -199.08 -30.5184 0.271038 -68.7931 -8.65075 -0.221258 -72.1134 -9.64746 -0.22828 -75.4147 -10.6309 -0.217302 -78.6956 -11.5885 -0.190919 -81.9539 -12.5097 -0.151103 -85.1873 -13.3856 -0.0993381 -88.3931 -14.2084 -0.036728 -91.5684 -14.9715 0.0359304 -94.7104 -15.6691 0.118087 -97.8161 -16.2959 0.209393 -100.883 -16.8475 0.309667 -103.907 -17.32 0.418868 -106.886 -17.7097 0.537073 -109.818 -18.0136 0.664463 -112.7 -18.229 0.801304 -117.379 -19.3228 0.925021 -123.811 -21.3446 1.01345 -130.13 -23.329 1.0813 -136.334 -25.262 1.1279 -142.422 -27.1317 1.15284 -148.392 -28.9277 1.15588 -154.245 -30.6415 1.137 -159.981 -32.2658 1.0963 -165.602 -33.7945 1.03404 -171.112 -35.2231 0.950596 -176.514 -36.548 0.846415 -181.816 -37.7668 0.722032 -187.025 -38.8782 0.578025 -192.153 -39.8818 0.415007 -197.214 -40.7783 0.233596 -66.1959 -11.7814 -0.399844 -69.4998 -13.0269 -0.38875 -72.7816 -14.2483 -0.363847 -76.0395 -15.4353 -0.327086 -79.2713 -16.5789 -0.279939 -82.4745 -17.6715 -0.223504 -85.6462 -18.7064 -0.158579 -88.7834 -19.6778 -0.0857195 -91.8833 -20.5804 -0.00528538 -94.9427 -21.4097 0.0825254 -97.9585 -22.1615 0.17765 -100.928 -22.8324 0.280141 -103.848 -23.4191 0.390145 -106.716 -23.9187 0.507897 -109.53 -24.3288 0.633701 -114.243 -25.7418 0.742766 -120.803 -28.1852 0.816122 -127.236 -30.5625 0.872006 -133.539 -32.8616 0.909997 -139.71 -35.0723 0.929895 -145.749 -37.1855 0.931692 -151.654 -39.1939 0.915555 -157.427 -41.0915 0.881794 -163.069 -42.8733 0.83085 -168.583 -44.5358 0.763271 -173.973 -46.0765 0.679697 -179.247 -47.4941 0.580841 -184.412 -48.7882 0.467473 -189.48 -49.9598 0.340403 -194.464 -51.0106 0.200464 -63.602 -14.9153 -0.508005 -66.8778 -16.3839 -0.48548 -70.1287 -17.8206 -0.452323 -73.3527 -19.2166 -0.410021 -76.5473 -20.5644 -0.359686 -79.7098 -21.8571 -0.302135 -82.8373 -23.089 -0.237948 -85.9267 -24.2546 -0.16751 -88.9749 -25.3493 -0.0910469 -91.9788 -26.3689 -0.00865411 -94.9351 -27.3097 0.0796844 -97.841 -28.1683 0.174078 -100.693 -28.9418 0.274717 -103.49 -29.6275 0.381859 -106.228 -30.2231 0.495827 -110.942 -31.9428 0.591071 -117.574 -34.795 0.65146 -124.066 -37.5567 0.697115 -130.415 -40.2173 0.727804 -136.619 -42.7679 0.743496 -142.677 -45.2006 0.744339 -148.588 -47.5093 0.730635 -154.352 -49.6887 0.702824 -159.971 -51.7351 0.661463 -165.448 -53.6459 0.607213 -170.787 -55.4195 0.540818 -175.995 -57.0556 0.463098 -181.081 -58.5548 0.374928 -186.055 -59.9192 0.277232 -190.932 -61.1517 0.170964 -60.9998 -18.041 -0.559363 -64.2376 -19.7106 -0.530495 -67.4479 -21.343 -0.493437 -70.6284 -22.9303 -0.449332 -73.7765 -24.466 -0.399029 -76.8894 -25.944 -0.343139 -79.9638 -27.3589 -0.282083 -82.9968 -2