<?xml version="1.0"?> 
<VTKFile type="StructuredGrid" version="0.1"> 
<StructuredGrid WholeExtent="0 14 0 14 0 29"> 
<Piece Extent="0 14 0 14 0 29"> 
<PointData>
<DataArray type="Float32" Name="hfield" format="ascii" NumberOfComponents="3"> 
1.59077 -1.66869 -0.244893 1.49825 -1.85909 -0.0770094 1.28344 -2.0556 0.0561044 0.975452 -2.2599 0.164236 0.591588 -2.47387 0.253816 0.141789 -2.69958 0.32924 -0.368981 -2.93942 0.393619 -0.93942 -3.19615 0.449213 -0.727039 -5.84272 0.127253 -0.506836 -8.63603 -0.15605 -0.299865 -11.6141 -0.407262 -0.12553 -14.823 -0.631545 -0.00312432 -18.3196 -0.833008 0.0466558 -22.1758 -1.01497 -2.45418e-14 -26.484 -1.18012 1.48571 -1.5525 -0.182728 1.32266 -1.60158 -0.0580795 1.08645 -1.66486 0.0426106 0.793433 -1.74063 0.125269 0.453596 -1.82811 0.194021 0.0726484 -1.9272 0.251825 -0.346764 -2.03832 0.300858 -0.804389 -2.16238 0.342758 -0.188482 -4.96708 0.0968466 0.406179 -7.89931 -0.118374 0.970162 -11.0038 -0.307739 1.49474 -14.3347 -0.475126 1.97106 -17.9594 -0.623677 2.38925 -21.9639 -0.75597 2.73742 -26.4616 -0.874133 1.41833 -1.47398 -0.137237 1.2068 -1.42186 -0.0438729 0.95438 -1.38765 0.0323018 0.670126 -1.36819 0.0951354 0.359478 -1.36137 0.147415 0.0253342 -1.36577 0.19121 -0.331326 -1.38053 0.228087 -0.711101 -1.40527 0.259256 0.266289 -4.25848 0.0730381 1.21083 -7.2202 -0.0889626 2.12352 -10.339 -0.230366 3.00633 -13.6739 -0.354117 3.86214 -17.299 -0.462639 4.69479 -21.3108 -0.557941 5.50931 -25.8382 -0.641704 1.37444 -1.41896 -0.101583 1.13051 -1.29285 -0.0325742 0.86753 -1.18654 0.0240223 0.589987 -1.09623 0.0707856 0.300322 -1.01905 0.109637 -0.000536932 -0.952807 0.142038 -0.312848 -0.895785 0.169118 -0.637904 -0.846637 0.191766 0.662849 -3.67261 0.0538687 1.93005 -6.58749 -0.0653967 3.17427 -9.64138 -0.168719 4.40807 -12.8955 -0.258311 5.64688 -16.4274 -0.336012 6.91025 -20.3391 -0.403362 8.22404 -24.7699 -0.46166 1.34655 -1.37994 -0.0720007 1.08269 -1.19941 -0.0231241 0.81474 -1.03956 0.0170639 0.544159 -0.896353 0.0502746 0.271307 -0.766547 0.0778085 -0.00430166 -0.647479 0.100671 -0.283855 -0.536876 0.119652 -0.569202 -0.432734 0.13538 1.02098 -3.17733 0.037933 2.58378 -5.99094 -0.045919 4.1385 -8.92331 -0.118095 5.70795 -12.0354 -0.180187 7.32025 -15.4049 -0.233529 9.01172 -19.1352 -0.279245 10.8314 -23.3689 -0.31829 1.33048 -1.35274 -0.0461877 1.05703 -1.13263 -0.0148448 0.789688 -0.933214 0.0109559 0.527842 -0.750486 0.0322678 0.27038 -0.581112 0.0499018 0.0157985 -0.422207 0.0644921 -0.237776 -0.271181 0.0765418 -0.492613 -0.125608 0.0864546 1.35683 -2.74844 0.0241767 3.18954 -5.42062 -0.0292024 5.03264 -8.18994 -0.0749223 6.91848 -11.115 -0.114018 8.8875 -14.2706 -0.14736 10.9927 -17.757 -0.175687 13.3068 -21.7136 -0.199626 1.32387 -1.335 -0.0225822 1.05003 -1.08721 -0.00726013 0.78911 -0.85906 0.00535808 0.53903 -0.646878 0.0157761 0.297661 -0.447463 0.0243846 0.0627912 -0.257934 0.0314907 -0.167924 -0.0755883 0.0373398 -0.397035 0.102216 0.0421297 1.68443 -2.36684 0.0117668 3.76286 -4.86639 -0.0141932 5.87222 -7.44084 -0.0363597 8.05346 -10.1445 -0.0552428 10.3583 -13.0467 -0.0712734 12.8554 -16.2403 -0.084817 15.6399 -19.8554 -0.0961862 1.3255 -1.3255 2.02581e-12 1.06012 -1.06012 2.16812e-12 0.811953 -0.811953 2.15652e-12 0.577938 -0.577938 2.23204e-12 0.355268 -0.355268 2.15747e-12 0.141282 -0.141282 2.19741e-12 -0.0666407 0.0666407 2.17564e-12 -0.271176 0.271176 2.23518e-12 2.01679 -2.01679 2.45752e-12 4.31763 -4.31763 2.76728e-12 6.67111 -6.67111 2.81902e-12 9.12558 -9.12558 2.87856e-12 11.7426 -11.7426 2.99716e-12 14.6042 -14.6042 2.93121e-12 17.8254 -17.8254 2.97649e-12 1.335 -1.32387 0.0225822 1.08721 -1.05003 0.00726013 0.85906 -0.78911 -0.00535808 0.646878 -0.53903 -0.0157761 0.447463 -0.297661 -0.0243846 0.257934 -0.0627912 -0.0314907 0.0755883 0.167924 -0.0373398 -0.102216 0.397035 -0.0421297 2.36684 -1.68443 -0.0117668 4.86639 -3.76286 0.0141932 7.44084 -5.87222 0.0363597 10.1445 -8.05346 0.0552428 13.0467 -10.3583 0.0712734 16.2403 -12.8554 0.084817 19.8554 -15.6399 0.0961862 1.35274 -1.33048 0.0461877 1.13263 -1.05703 0.0148448 0.933214 -0.789688 -0.0109559 0.750486 -0.527842 -0.0322678 0.581112 -0.27038 -0.0499018 0.422207 -0.0157985 -0.0644921 0.271181 0.237776 -0.0765418 0.125608 0.492613 -0.0864546 2.74844 -1.35683 -0.0241767 5.42062 -3.18954 0.0292024 8.18994 -5.03264 0.0749223 11.115 -6.91848 0.114018 14.2706 -8.8875 0.14736 17.757 -10.9927 0.175687 21.7136 -13.3068 0.199626 1.37994 -1.34655 0.0720007 1.19941 -1.08269 0.0231241 1.03956 -0.81474 -0.0170639 0.896353 -0.544159 -0.0502746 0.766547 -0.271307 -0.0778085 0.647479 0.00430166 -0.100671 0.536876 0.283855 -0.119652 0.432734 0.569202 -0.13538 3.17733 -1.02098 -0.037933 5.99094 -2.58378 0.045919 8.92331 -4.1385 0.118095 12.0354 -5.70795 0.180187 15.4049 -7.32025 0.233529 19.1352 -9.01172 0.279245 23.3689 -10.8314 0.31829 1.41896 -1.37444 0.101583 1.29285 -1.13051 0.0325742 1.18654 -0.86753 -0.0240223 1.09623 -0.589987 -0.0707856 1.01905 -0.300322 -0.109637 0.952807 0.000536932 -0.142038 0.895785 0.312848 -0.169118 0.846637 0.637904 -0.191766 3.67261 -0.662849 -0.0538687 6.58749 -1.93005 0.0653967 9.64138 -3.17427 0.168719 12.8955 -4.40807 0.258311 16.4274 -5.64688 0.336012 20.3391 -6.91025 0.403362 24.7699 -8.22404 0.46166 1.47398 -1.41833 0.137237 1.42186 -1.2068 0.0438729 1.38765 -0.95438 -0.0323018 1.36819 -0.670126 -0.0951354 1.36137 -0.359478 -0.147415 1.36577 -0.0253342 -0.19121 1.38053 0.331326 -0.228087 1.40527 0.711101 -0.259256 4.25848 -0.266289 -0.0730381 7.2202 -1.21083 0.0889626 10.339 -2.12352 0.230366 13.6739 -3.00633 0.354117 17.299 -3.86214 0.462639 21.3108 -4.69479 0.557941 25.8382 -5.50931 0.641704 1.5525 -1.48571 0.182728 1.60158 -1.32266 0.0580795 1.66486 -1.08645 -0.0426106 1.74063 -0.793433 -0.125269 1.82811 -0.453596 -0.194021 1.9272 -0.0726484 -0.251825 2.03832 0.346764 -0.300858 2.16238 0.804389 -0.342758 4.96708 0.188482 -0.0968466 7.89931 -0.406179 0.118374 11.0038 -0.970162 0.307739 14.3347 -1.49474 0.475126 17.9594 -1.97106 0.623677 21.9639 -2.38925 0.75597 26.4616 -2.73742 0.874133 1.66869 -1.59077 0.244893 1.85909 -1.49825 0.0770094 2.0556 -1.28344 -0.0561044 2.2599 -0.975452 -0.164236 2.47387 -0.591588 -0.253816 2.69958 -0.141789 -0.32924 2.93942 0.368981 -0.393619 3.19615 0.93942 -0.449213 5.84272 0.727039 -0.127253 8.63603 0.506836 0.15605 11.6141 0.299865 0.407262 14.823 0.12553 0.631545 18.3196 0.00312432 0.833008 22.1758 -0.0466558 1.01497 26.484 2.45418e-14 1.18012 3.46244 80.1057 -1.64214 4.16272 86.7654 -1.273 4.62421 93.4449 -1.10831 5.06308 100.115 -1.08917 5.61762 106.749 -1.18204 6.38222 113.318 -1.3677 7.42472 119.798 -1.63557 8.79607 126.17 -1.98069 8.2616 136.951 -2.34425 7.21549 147.606 -2.53868 5.85078 158.123 -2.54533 4.31001 168.503 -2.34924 2.69703 178.77 -1.93772 1.08513 188.973 -1.29889 -0.477507 199.194 -0.420128 -2.70473 74.3345 -0.392866 -3.60959 81.2144 -0.281143 -4.51856 88.0418 -0.281465 -5.30379 94.7974 -0.36552 -5.87732 101.458 -0.51732 -6.17563 107.998 -0.728323 -6.15128 114.393 -0.994771 -5.76799 120.622 -1.31616 -8.22151 133.092 -1.5735 -10.7687 145.222 -1.70769 -13.2688 157.003 -1.70932 -15.6186 168.436 -1.5728 -17.7446 179.546 -1.2952 -19.5984 190.379 -0.875219 -21.1519 201.02 -0.312034 -9.15772 68.8492 0.25297 -11.2939 75.743 0.242223 -13.312 82.5447 0.167304 -15.1276 89.2343 0.0429123 -16.6785 95.7871 -0.123127 -17.9176 102.177 -0.327356 -18.8089 108.377 -0.569242 -19.3244 114.366 -0.850322 -23.6518 127.79 -1.02835 -27.7668 140.712 -1.11819 -31.5656 153.12 -1.11641 -34.9741 165.015 -1.02315 -37.9434 176.415 -0.841119 -40.4467 187.368 -0.574845 -42.4767 197.96 -0.229852 -15.6861 63.4393 0.526417 -18.8018 70.222 0.464874 -21.7369 76.8843 0.365884 -24.429 83.4029 0.237503 -26.8301 89.7508 0.0835649 -28.9018 95.8997 -0.0948718 -30.614 101.823 -0.298666 -31.9432 107.495 -0.53006 -38.0479 121.307 -0.649696 -43.7178 134.496 -0.707709 -48.8751 147.045 -0.704175 -53.467 158.95 -0.642151 -57.4636 170.229 -0.526948 -60.8565 180.928 -0.365522 -63.6583 191.133 -0.16595 -22.1727 57.9876 0.562699 -26.0866 64.5729 0.49088 -29.7906 71.0134 0.397388 -33.235 77.2825 0.286747 -36.3789 83.3509 0.160792 -39.1887 89.1892 0.0195485 -41.637 94.7693 -0.138233 -43.702 100.067 -0.314732 -51.4548 113.824 -0.391662 -58.6147 126.871 -0.427366 -65.1215 139.184 -0.423484 -70.9378 150.758 -0.383957 -76.048 161.607 -0.314484 -80.4588 171.778 -0.222089 -84.2018 181.357 -0.11478 -28.5493 52.4259 0.4486 -33.1244 58.7451 0.390001 -37.4805 64.8971 0.319545 -41.575 70.8524 0.239694 -45.3711 76.5801 0.151276 -48.8374 82.0499 0.054004 -51.9472 87.2337 -0.0532017 -54.6795 92.107 -0.172004 -63.9296 105.458 -0.217376 -72.479 118.04 -0.237564 -80.2797 129.826 -0.234398 -87.3046 140.808 -0.211261 -93.5489 150.998 -0.172729 -99.0319 160.442 -0.124297 -103.801 169.223 -0.0721697 -34.7766 46.7149 0.245173 -39.9056 52.705 0.212916 -44.8189 58.5078 0.175431 -49.4786 64.091 0.13381 -53.8502 69.4226 0.0883656 -57.9027 74.4721 0.038873 -61.6098 79.2115 -0.0152748 -64.9495 83.6173 -0.0749676 -75.529 96.2749 -0.0959152 -85.341 108.134 -0.104946 -94.346 119.164 -0.103193 -102.524 129.353 -0.0925662 -109.877 138.713 -0.0755817 -116.435 147.285 -0.0552186 -122.26 155.15 -0.0348294 -40.8339 40.8339 6.32383e-13 -46.43 46.43 6.4887e-13 -51.8219 51.8219 8.57814e-13 -56.9749 56.9749 9.94926e-13 -61.8557 61.8557 1.07447e-12 -66.4338 66.4338 1.03917e-12 -70.682 70.682 1.04983e-12 -74.5776 74.5776 1.07825e-12 -86.3006 86.3006 1.52767e-12 -97.2247 97.2247 1.84741e-12 -107.316 107.316 2.16716e-12 -116.559 116.559 2.17426e-12 -124.961 124.961 2.17781e-12 -132.56 132.56 2.10143e-12 -139.428 139.428 1.99706e-12 -46.7149 34.7766 -0.245173 -52.705 39.9056 -0.212916 -58.5078 44.8189 -0.175431 -64.091 49.4786 -0.13381 -69.4226 53.8502 -0.0883656 -74.4721 57.9027 -0.038873 -79.2115 61.6098 0.0152748 -83.6173 64.9495 0.0749676 -96.2749 75.529 0.0959152 -108.134 85.341 0.104946 -119.164 94.346 0.103193 -129.353 102.524 0.0925662 -138.713 109.877 0.0755817 -147.285 116.435 0.0552186 -155.15 122.26 0.0348294 -52.4259 28.5493 -0.4486 -58.7451 33.1244 -0.390001 -64.8971 37.4805 -0.319545 -70.8524 41.575 -0.239694 -76.5801 45.3711 -0.151276 -82.0499 48.8374 -0.054004 -87.2337 51.9472 0.0532017 -92.107 54.6795 0.172004 -105.458 63.9296 0.217376 -118.04 72.479 0.237564 -129.826 80.2797 0.234398 -140.808 87.3046 0.211261 -150.998 93.5489 0.172729 -160.442 99.0319 0.124297 -169.223 103.801 0.0721697 -57.9876 22.1727 -0.562699 -64.5729 26.0866 -0.49088 -71.0134 29.7906 -0.397388 -77.2825 33.235 -0.286747 -83.3509 36.3789 -0.160792 -89.1892 39.1887 -0.0195485 -94.7693 41.637 0.138233 -100.067 43.702 0.314732 -113.824 51.4548 0.391662 -126.871 58.6147 0.427366 -139.184 65.1215 0.423484 -150.758 70.9378 0.383957 -161.607 76.048 0.314484 -171.778 80.4588 0.222089 -181.357 84.2018 0.11478 -63.4393 15.6861 -0.526417 -70.222 18.8018 -0.464874 -76.8843 21.7369 -0.365884 -83.4029 24.429 -0.237503 -89.7508 26.8301 -0.0835649 -95.8997 28.9018 0.0948718 -101.823 30.614 0.298666 -107.495 31.9432 0.53006 -121.307 38.0479 0.649696 -134.496 43.7178 0.707709 -147.045 48.8751 0.704175 -158.95 53.467 0.642151 -170.229 57.4636 0.526948 -180.928 60.8565 0.365522 -191.133 63.6583 0.16595 -68.8492 9.15772 -0.25297 -75.743 11.2939 -0.242223 -82.5447 13.312 -0.167304 -89.2343 15.1276 -0.0429123 -95.7871 16.6785 0.123127 -102.177 17.9176 0.327356 -108.377 18.8089 0.569242 -114.366 19.3244 0.850322 -127.79 23.6518 1.02835 -140.712 27.7668 1.11819 -153.12 31.5656 1.11641 -165.015 34.9741 1.02315 -176.415 37.9434 0.841119 -187.368 40.4467 0.574845 -197.96 42.4767 0.229852 -74.3345 2.70473 0.392866 -81.2144 3.60959 0.281143 -88.0418 4.51856 0.281465 -94.7974 5.30379 0.36552 -101.458 5.87732 0.51732 -107.998 6.17563 0.728323 -114.393 6.15128 0.994771 -120.622 5.76799 1.31616 -133.092 8.22151 1.5735 -145.222 10.7687 1.70769 -157.003 13.2688 1.70932 -168.436 15.6186 1.5728 -179.546 17.7446 1.2952 -190.379 19.5984 0.875219 -201.02 21.1519 0.312034 -80.1057 -3.46244 1.64214 -86.7654 -4.16272 1.273 -93.4449 -4.62421 1.10831 -100.115 -5.06308 1.08917 -106.749 -5.61762 1.18204 -113.318 -6.38222 1.3677 -119.798 -7.42472 1.63557 -126.17 -8.79607 1.98069 -136.951 -8.2616 2.34425 -147.606 -7.21549 2.53868 -158.123 -5.85078 2.54533 -168.503 -4.31001 2.34924 -178.77 -2.69703 1.93772 -188.973 -1.08513 1.29889 -199.194 0.477507 0.420128 5.43609 144.155 -7.04431 5.04854 161.154 -2.07096 3.62714 178.542 0.660772 2.10274 196.378 2.13515 1.04159 214.728 2.86558 0.839227 233.677 3.13097 1.80833 253.342 3.08024 4.22481 273.88 2.78291 3.92989 292.542 -1.66478 3.14972 312.495 -4.48153 2.55022 334.117 -5.76658 2.72048 357.926 -5.6079 4.22782 384.638 -4.07854 7.67533 415.264 -1.22898 13.7764 451.256 2.92578 -6.56028 134.781 -5.49773 -8.49618 151.8 -1.49315 -11.2708 168.894 0.762454 -14.1856 186.146 1.98076 -16.7879 203.615 2.55867 -18.7526 221.364 2.72459 -19.8251 239.471 2.60807 -19.79 258.05 2.27555 -24.2842 280.23 -1.32964 -28.8166 303.157 -3.55798 -32.8777 327.218 -4.51277 -36.0242 352.929 -4.30244 -37.8439 381.002 -3.03675 -37.9172 412.436 -0.821326 -35.7665 448.671 2.24941 -18.2131 125.064 -4.25323 -21.866 141.877 -1.06612 -26.155 158.568 0.763986 -30.5588 175.207 1.7528 -34.7195 191.834 2.20426 -38.3719 208.483 2.30208 -41.3083 225.197 2.15593 -43.3599 242.052 1.82634 -51.9633 266.772 -1.03623 -60.2378 291.752 -2.76543 -67.8048 317.342 -3.46061 -74.3519 344.017 -3.23522 -79.6136 372.437 -2.21266 -83.3515 403.539 -0.52216 -85.3278 438.685 1.70526 -29.6109 115.091 -3.21131 -35.0568 131.451 -0.745911 -40.9477 147.582 0.690754 -46.8936 163.525 1.46719 -52.6109 179.289 1.81055 -57.8826 194.878 1.86384 -62.5383 210.306 1.71606 -66.4435 225.611 1.41918 -78.9706 251.941 -0.780195 -90.8759 278.111 -2.08158 -101.887 304.41 -2.57344 -111.803 331.244 -2.36153 -120.49 359.2 -1.56486 -127.875 389.124 -0.312234 -133.946 422.26 1.26013 -40.808 104.918 -2.30633 -48.0543 120.574 -0.501004 -55.5736 135.965 0.56254 -63.0714 151.092 1.13747 -70.3213 165.93 1.38545 -77.144 180.456 1.41151 -83.3977 194.653 1.28324 -88.9736 208.53 1.04171 -105.143 235.586 -0.55582 -120.47 262.139 -1.48474 -134.768 288.4 -1.81677 -147.93 314.704 -1.63996 -159.934 341.549 -1.05512 -170.856 369.678 -0.17297 -180.885 400.201 0.887366 -51.8386 94.5788 -1.49192 -60.8381 109.291 -0.307475 -69.9597 123.754 0.395566 -78.9793 137.925 0.775714 -87.7145 151.749 0.936764 -96.0157 165.172 0.947754 -103.764 178.155 0.854118 -110.87 190.68 0.684285 -130.304 217.63 -0.356264 -148.751 243.81 -0.953336 -166.092 269.362 -1.15735 -182.301 294.54 -1.03117 -197.455 319.757 -0.647379 -211.755 345.647 -0.0862856 -225.575 373.179 0.565119 -62.7236 84.0937 -0.732822 -73.3831 97.6417 -0.146023 -84.0356 110.993 0.203824 -94.5109 124.064 0.393027 -104.662 136.769 0.472328 -114.364 149.029 0.475951 -123.517 160.782 0.426734 -132.049 171.99 0.339206 -154.279 198.055 -0.173783 -175.453 223.171 -0.465699 -195.514 247.408 -0.562547 -214.508 270.947 -0.496998 -232.597 294.115 -0.306955 -250.101 317.443 -0.0344579 -267.551 341.757 0.274823 -73.4741 73.4741 -7.65166e-13 -85.6613 85.6613 -3.81532e-13 -97.7342 97.7342 -1.95954e-14 -109.568 109.568 1.68088e-13 -121.047 121.047 2.69451e-13 -132.069 132.069 4.06786e-13 -142.552 142.552 4.91607e-13 -152.44 152.44 4.73843e-13 -176.907 176.907 4.12115e-13 -200.33 200.33 2.95763e-13 -222.714 222.714 3.53495e-13 -244.17 244.17 3.32179e-13 -264.945 264.945 2.81553e-13 -285.464 285.464 2.40696e-13 -306.408 306.408 2.92678e-13 -84.0937 62.7236 0.732822 -97.6417 73.3831 0.146023 -110.993 84.0356 -0.203824 -124.064 94.5109 -0.393027 -136.769 104.662 -0.472328 -149.029 114.364 -0.475951 -160.782 123.517 -0.426734 -171.99 132.049 -0.339206 -198.055 154.279 0.173783 -223.171 175.453 0.465699 -247.408 195.514 0.562547 -270.947 214.508 0.496998 -294.115 232.597 0.306955 -317.443 250.101 0.0344579 -341.757 267.551 -0.274823 -94.5788 51.8386 1.49192 -109.291 60.8381 0.307475 -123.754 69.9597 -0.395566 -137.925 78.9793 -0.775714 -151.749 87.7145 -0.936764 -165.172 96.0157 -0.947754 -178.155 103.764 -0.854118 -190.68 110.87 -0.684285 -217.63 130.304 0.356264 -243.81 148.751 0.953336 -269.362 166.092 1.15735 -294.54 182.301 1.03117 -319.757 197.455 0.647379 -345.647 211.755 0.0862856 -373.179 225.575 -0.565119 -104.918 40.808 2.30633 -120.574 48.0543 0.501004 -135.965 55.5736 -0.56254 -151.092 63.0714 -1.13747 -165.93 70.3213 -1.38545 -180.456 77.144 -1.41151 -194.653 83.3977 -1.28324 -208.53 88.9736 -1.04171 -235.586 105.143 0.55582 -262.139 120.47 1.48474 -288.4 134.768 1.81677 -314.704 147.93 1.63996 -341.549 159.934 1.05512 -369.678 170.856 0.17297 -400.201 180.885 -0.887366 -115.091 29.6109 3.21131 -131.451 35.0568 0.745911 -147.582 40.9477 -0.690754 -163.525 46.8936 -1.46719 -179.289 52.6109 -1.81055 -194.878 57.8826 -1.86384 -210.306 62.5383 -1.71606 -225.611 66.4435 -1.41918 -251.941 78.9706 0.780195 -278.111 90.8759 2.08158 -304.41 101.887 2.57344 -331.244 111.803 2.36153 -359.2 120.49 1.56486 -389.124 127.875 0.312234 -422.26 133.946 -1.26013 -125.064 18.2131 4.25323 -141.877 21.866 1.06612 -158.568 26.155 -0.763986 -175.207 30.5588 -1.7528 -191.834 34.7195 -2.20426 -208.483 38.3719 -2.30208 -225.197 41.3083 -2.15593 -242.052 43.3599 -1.82634 -266.772 51.9633 1.03623 -291.752 60.2378 2.76543 -317.342 67.8048 3.46061 -344.017 74.3519 3.23522 -372.437 79.6136 2.21266 -403.539 83.3515 0.52216 -438.685 85.3278 -1.70526 -134.781 6.56028 5.49773 -151.8 8.49618 1.49315 -168.894 11.2708 -0.762454 -186.146 14.1856 -1.98076 -203.615 16.7879 -2.55867 -221.364 18.7526 -2.72459 -239.471 19.8251 -2.60807 -258.05 19.79 -2.27555 -280.23 24.2842 1.32964 -303.157 28.8166 3.55798 -327.218 32.8777 4.51277 -352.929 36.0242 4.30244 -381.002 37.8439 3.03675 -412.436 37.9172 0.821326 -448.671 35.7665 -2.24941 -144.155 -5.43609 7.04431 -161.154 -5.04854 2.07096 -178.542 -3.62714 -0.660772 -196.378 -2.10274 -2.13515 -214.728 -1.04159 -2.86558 -233.677 -0.839227 -3.13097 -253.342 -1.80833 -3.08024 -273.88 -4.22481 -2.78291 -292.542 -3.92989 1.66478 -312.495 -3.14972 4.48153 -334.117 -2.55022 5.76658 -357.926 -2.72048 5.6079 -384.638 -4.22782 4.07854 -415.264 -7.67533 1.22898 -451.256 -13.7764 -2.92578 -6.5731 164.307 -9.55056 -0.123998 184.786 -2.93066 1.69386 205.636 0.346648 1.34631 226.965 1.91934 0.246057 248.885 2.61818 -0.685372 271.516 2.88155 -0.772048 294.989 2.93355 0.537442 319.449 2.86833 1.20081 337.408 -2.48567 1.32206 356.466 -5.82743 1.6162 376.776 -7.29332 2.69447 398.513 -7.00426 5.11355 421.883 -5.07187 9.41246 447.126 -1.6031 16.1431 474.53 3.29577 -14.832 150.032 -7.54999 -13.2786 171.461 -2.17894 -14.8072 192.522 0.617691 -17.7907 213.469 2.02673 -21.2386 234.49 2.68577 -24.4818 255.754 2.94578 -27.0242 277.43 2.99277 -28.4645 299.705 2.90897 -31.7647 320.32 -1.41223 -35.1836 341.771 -4.07874 -38.1744 364.393 -5.23359 -40.2666 388.587 -5.01554 -41.0249 414.855 -3.55967 -40.0126 443.844 -0.997198 -36.7518 476.409 2.54501 -23.8962 136.563 -5.90345 -26.5144 158.272 -1.60543 -31.1039 179.212 0.72175 -36.58 199.658 1.93889 -42.251 219.812 2.52996 -47.6392 239.848 2.77081 -52.3915 259.949 2.81224 -56.2305 280.316 2.72399 -63.2284 302.625 -0.698779 -70.0443 325.482 -2.78912 -76.3092 349.34 -3.68325 -81.7246 374.766 -3.51987 -86.0351 402.5 -2.43797 -89.0025 433.549 -0.574734 -90.3766 469.343 1.93643 -33.5534 123.687 -4.49579 -39.7834 145.154 -1.15817 -47.1666 165.666 0.703679 -54.9775 185.461 1.70529 -62.7378 204.716 2.20522 -70.115 223.591 2.41367 -76.8696 242.258 2.44855 -82.8255 260.916 2.36649 -93.2209 284.1 -0.260555 -103.228 307.547 -1.85065 -112.653 331.774 -2.5232 -121.388 357.449 -2.40336 -129.394 385.482 -1.61879 -136.711 417.16 -0.29723 -143.462 454.402 1.43519 -43.6713 111.272 -3.25035 -53.0541 132.064 -0.799811 -62.9737 151.858 0.597507 -72.9491 170.829 1.36484 -82.657 189.112 1.75541 -91.8757 206.834 1.9209 -100.456 224.145 1.94817 -108.306 241.229 1.88019 -121.771 264.583 -0.0276827 -134.717 287.939 -1.17415 -147.119 311.828 -1.65454 -159.059 336.967 -1.57056 -170.736 364.354 -1.02718 -182.513 395.451 -0.130526 -195 432.516 1.01295 -54.1669 99.2337 -2.11253 -66.3061 118.971 -0.502004 -78.5093 137.771 0.430248 -90.4686 155.732 0.949419 -101.976 172.936 1.21717 -112.897 189.472 1.33184 -123.155 205.457 1.35057 -132.726 221.048 1.30227 -148.905 243.958 0.0592386 -164.504 266.644 -0.683753 -179.65 289.618 -0.992905 -194.603 313.588 -0.939605 -209.799 339.565 -0.598069 -225.942 369.064 -0.0438917 -244.173 404.491 0.646147 -64.9892 87.5226 -1.0406 -79.527 105.857 -0.241935 -93.7623 123.395 0.22445 -107.517 140.152 0.486305 -120.672 156.15 0.622377 -133.164 171.434 0.681008 -144.975 186.081 0.69055 -156.14 200.216 0.665519 -174.655 222.136 0.0525047 -192.589 243.656 -0.312721 -210.204 265.234 -0.464031 -227.92 287.521 -0.438166 -246.39 311.468 -0.273474 -266.631 338.527 -0.00918367 -290.299 371.035 0.314534 -76.1107 76.1107 -8.01614e-13 -92.7107 92.7107 -3.86011e-13 -108.725 108.725 -4.21885e-14 -124.08 124.08 2.7911e-13 -138.731 138.731 4.17888e-13 -152.673 152.673 6.59917e-13 -165.939 165.939 7.44294e-13 -178.612 178.612 7.62057e-13 -199.051 199.051 7.56728e-13 -218.972 218.972 7.24754e-13 -238.745 238.745 6.43041e-13 -258.925 258.925 5.08038e-13 -280.339 280.339 3.87246e-13 -304.264 304.264 2.38032e-13 -332.777 332.777 5.86409e-14 -87.5226 64.9892 1.0406 -105.857 79.527 0.241935 -123.395 93.7623 -0.22445 -140.152 107.517 -0.486305 -156.15 120.672 -0.622377 -171.434 133.164 -0.681008 -186.081 144.975 -0.69055 -200.216 156.14 -0.665519 -222.136 174.655 -0.0525047 -243.656 192.589 0.312721 -265.234 210.204 0.464031 -287.521 227.92 0.438166 -311.468 246.39 0.273474 -338.527 266.631 0.00918367 -371.035 290.299 -0.314534 -99.2337 54.1669 2.11253 -118.971 66.3061 0.502004 -137.771 78.5093 -0.430248 -155.732 90.4686 -0.949419 -172.936 101.976 -1.21717 -189.472 112.897 -1.33184 -205.457 123.155 -1.35057 -221.048 132.726 -1.30227 -243.958 148.905 -0.0592386 -266.644 164.504 0.683753 -289.618 179.65 0.992905 -313.588 194.603 0.939605 -339.565 209.799 0.598069 -369.064 225.942 0.0438917 -404.491 244.173 -0.646147 -111.272 43.6713 3.25035 -132.064 53.0541 0.799811 -151.858 62.9737 -0.597507 -170.829 72.9491 -1.36484 -189.112 82.657 -1.75541 -206.834 91.8757 -1.9209 -224.145 100.456 -1.94817 -241.229 108.306 -1.88019 -264.583 121.771 0.0276827 -287.939 134.717 1.17415 -311.828 147.119 1.65454 -336.967 159.059 1.57056 -364.354 170.736 1.02718 -395.451 182.513 0.130526 -432.516 195 -1.01295 -123.687 33.5534 4.49579 -145.154 39.7834 1.15817 -165.666 47.1666 -0.703679 -185.461 54.9775 -1.70529 -204.716 62.7378 -2.20522 -223.591 70.115 -2.41367 -242.258 76.8696 -2.44855 -260.916 82.8255 -2.36649 -284.1 93.2209 0.260555 -307.547 103.228 1.85065 -331.774 112.653 2.5232 -357.449 121.388 2.40336 -385.482 129.394 1.61879 -417.16 136.711 0.29723 -454.402 143.462 -1.43519 -136.563 23.8962 5.90345 -158.272 26.5144 1.60543 -179.212 31.1039 -0.72175 -199.658 36.58 -1.93889 -219.812 42.251 -2.52996 -239.848 47.6392 -2.77081 -259.949 52.3915 -2.81224 -280.316 56.2305 -2.72399 -302.625 63.2284 0.698779 -325.482 70.0443 2.78912 -349.34 76.3092 3.68325 -374.766 81.7246 3.51987 -402.5 86.0351 2.43797 -433.549 89.0025 0.574734 -469.343 90.3766 -1.93643 -150.032 14.832 7.54999 -171.461 13.2786 2.17894 -192.522 14.8072 -0.617691 -213.469 17.7907 -2.02673 -234.49 21.2386 -2.68577 -255.754 24.4818 -2.94578 -277.43 27.0242 -2.99277 -299.705 28.4645 -2.90897 -320.32 31.7647 1.41223 -341.771 35.1836 4.07874 -364.393 38.1744 5.23359 -388.587 40.2666 5.01554 -414.855 41.0249 3.55967 -443.844 40.0126 0.997198 -476.409 36.7518 -2.54501 -164.307 6.5731 9.55056 -184.786 0.123998 2.93066 -205.636 -1.69386 -0.346648 -226.965 -1.34631 -1.91934 -248.885 -0.246057 -2.61818 -271.516 0.685372 -2.88155 -294.989 0.772048 -2.93355 -319.449 -0.537442 -2.86833 -337.408 -1.20081 2.48567 -356.466 -1.32206 5.82743 -376.776 -1.6162 7.29332 -398.513 -2.69447 7.00426 -421.883 -5.11355 5.07187 -447.126 -9.41246 1.6031 -474.53 -16.1431 -3.29577 -8.12488 174.566 -11.8122 -1.0789 198.206 -3.48792 0.807302 222.103 0.554555 0.37094 246.333 2.44477 -0.793386 270.975 3.23633 -1.65844 296.112 3.4735 -1.47986 321.83 3.42742 0.339421 348.224 3.20593 0.83417 368.183 -2.97145 0.786656 388.89 -6.7384 1.03387 410.435 -8.29661 2.27422 432.917 -7.83981 5.12204 456.446 -5.56138 10.1454 481.142 -1.66036 17.8939 507.144 3.65319 -16.4818 159.145 -9.35367 -14.9987 183.843 -2.60668 -16.9158 208.004 0.840352 -20.3578 231.873 2.53353 -24.2003 255.617 3.28411 -27.6912 279.375 3.52964 -30.2774 303.282 3.49646 -31.5177 327.485 3.28002 -35.3264 350.406 -1.71713 -39.1612 373.75 -4.72835 -42.372 397.793 -5.95577 -44.4116 422.849 -5.60373 -44.7903 449.302 -3.87996 -43.0382 477.622 -0.996635 -38.6684 508.41 2.82804 -25.7767 144.663 -7.32284 -29.0259 169.655 -1.92928 -34.4206 193.687 0.937245 -40.7053 217.031 2.39984 -47.088 239.871 3.07591 -53.0248 262.357 3.31053 -58.1152 284.641 3.28802 -62.0465 306.893 3.09014 -69.9067 331.723 -0.874784 -77.4074 356.645 -3.23824 -84.0911 382.055 -4.18794 -89.5886 408.432 -3.91957 -93.585 436.38 -2.63456 -95.7899 466.69 -0.538956 -95.9048 500.434 2.15627 -35.7658 130.875 -5.5818 -43.1081 155.567 -1.3972 -51.6771 179.112 0.894928 -60.6261 201.741 2.09866 -69.3998 223.611 2.67241 -77.6118 244.861 2.87979 -84.9823 265.634 2.86546 -91.3043 286.101 2.69629 -102.915 311.933 -0.350626 -113.883 337.543 -2.14988 -123.94 363.396 -2.86357 -132.907 390.073 -2.66397 -140.68 418.341 -1.72999 -147.213 449.24 -0.245384 -152.519 484.256 1.60085 -46.2965 117.628 -4.03812 -57.2104 141.531 -0.967952 -68.6628 164.254 0.751602 -80.084 185.957 1.67393 -91.0894 206.751 2.12328 -101.412 226.744 2.2903 -110.869 246.057 2.28183 -119.339 264.848 2.14886 -134.358 290.893 -0.065844 -148.537 316.439 -1.36372 -161.785 341.972 -1.87299 -174.116 368.123 -1.7316 -185.648 395.747 -1.08373 -196.626 426.045 -0.078062 -207.467 460.794 1.13137 -57.2727 104.827 -2.62568 -71.3101 127.514 -0.608985 -85.3612 149.096 0.537936 -99.0503 169.651 1.16206 -112.12 189.233 1.47065 -124.396 207.907 1.58746 -135.771 225.763 1.58293 -146.197 242.936 1.49147 -164.243 268.499 0.0477151 -181.33 293.339 -0.793618 -197.527 317.922 -1.12107 -213.026 342.874 -1.03062 -228.17 369.067 -0.62301 -243.505 397.759 -0.00244305 -259.893 430.857 0.722362 -68.6351 92.4124 -1.29369 -85.3937 113.493 -0.293928 -101.76 133.63 0.279757 -117.503 152.809 0.594582 -132.463 171.022 0.751566 -146.54 188.284 0.811609 -159.69 204.649 0.809691 -171.924 220.216 0.763129 -192.58 244.68 0.0509016 -212.231 268.258 -0.362716 -231.085 291.361 -0.522886 -249.493 314.563 -0.478785 -267.998 338.685 -0.282122 -287.426 364.932 0.0134828 -309.072 395.163 0.351832 -80.3518 80.3518 -8.25156e-13 -99.4545 99.4545 -3.47861e-13 -117.851 117.851 -4.57412e-14 -135.426 135.426 1.93179e-13 -152.1 152.1 4.08562e-13 -167.835 167.835 5.29354e-13 -182.64 182.64 6.53699e-13 -196.574 196.574 7.70939e-13 -219.385 219.385 5.82645e-13 -241.215 241.215 5.18696e-13 -262.388 262.388 3.90799e-13 -283.384 283.384 3.12639e-13 -304.91 304.91 2.13163e-13 -328.023 328.023 1.1724e-13 -354.364 354.364 -5.09398e-14 -92.4124 68.6351 1.29369 -113.493 85.3937 0.293928 -133.63 101.76 -0.279757 -152.809 117.503 -0.594582 -171.022 132.463 -0.751566 -188.284 146.54 -0.811609 -204.649 159.69 -0.809691 -220.216 171.924 -0.763129 -244.68 192.58 -0.0509016 -268.258 212.231 0.362716 -291.361 231.085 0.522886 -314.563 249.493 0.478785 -338.685 267.998 0.282122 -364.932 287.426 -0.0134828 -395.163 309.072 -0.351832 -104.827 57.2727 2.62568 -127.514 71.3101 0.608985 -149.096 85.3612 -0.537936 -169.651 99.0503 -1.16206 -189.233 112.12 -1.47065 -207.907 124.396 -1.58746 -225.763 135.771 -1.58293 -242.936 146.197 -1.49147 -268.499 164.243 -0.0477151 -293.339 181.33 0.793618 -317.922 197.527 1.12107 -342.874 213.026 1.03062 -369.067 228.17 0.62301 -397.759 243.505 0.00244305 -430.857 259.893 -0.722362 -117.628 46.2965 4.03812 -141.531 57.2104 0.967952 -164.254 68.6628 -0.751602 -185.957 80.084 -1.67393 -206.751 91.0894 -2.12328 -226.744 101.412 -2.2903 -246.057 110.869 -2.28183 -264.848 119.339 -2.14886 -290.893 134.358 0.065844 -316.439 148.537 1.36372 -341.972 161.785 1.87299 -368.123 174.116 1.7316 -395.747 185.648 1.08373 -426.045 196.626 0.078062 -460.794 207.467 -1.13137 -130.875 35.7658 5.5818 -155.567 43.1081 1.3972 -179.112 51.6771 -0.894928 -201.741 60.6261 -2.09866 -223.611 69.3998 -2.67241 -244.861 77.6118 -2.87979 -265.634 84.9823 -2.86546 -286.101 91.3043 -2.69629 -311.933 102.915 0.350626 -337.543 113.883 2.14988 -363.396 123.94 2.86357 -390.073 132.907 2.66397 -418.341 140.68 1.72999 -449.24 147.213 0.245384 -484.256 152.519 -1.60085 -144.663 25.7767 7.32284 -169.655 29.0259 1.92928 -193.687 34.4206 -0.937245 -217.031 40.7053 -2.39984 -239.871 47.088 -3.07591 -262.357 53.0248 -3.31053 -284.641 58.1152 -3.28802 -306.893 62.0465 -3.09014 -331.723 69.9067 0.874784 -356.645 77.4074 3.23824 -382.055 84.0911 4.18794 -408.432 89.5886 3.91957 -436.38 93.585 2.63456 -466.69 95.7899 0.538956 -500.434 95.9048 -2.15627 -159.145 16.4818 9.35367 -183.843 14.9987 2.60668 -208.004 16.9158 -0.840352 -231.873 20.3578 -2.53353 -255.617 24.2003 -3.28411 -279.375 27.6912 -3.52964 -303.282 30.2774 -3.49646 -327.485 31.5177 -3.28002 -350.406 35.3264 1.71713 -373.75 39.1612 4.72835 -397.793 42.372 5.95577 -422.849 44.4116 5.60373 -449.302 44.7903 3.87996 -477.622 43.0382 0.996635 -508.41 38.6684 -2.82804 -174.566 8.12488 11.8122 -198.206 1.0789 3.48792 -222.103 -0.807302 -0.554555 -246.333 -0.37094 -2.44477 -270.975 0.793386 -3.23633 -296.112 1.65844 -3.4735 -321.83 1.47986 -3.42742 -348.224 -0.339421 -3.20593 -368.183 -0.83417 2.97145 -388.89 -0.786656 6.7384 -410.435 -1.03387 8.29661 -432.917 -2.27422 7.83981 -456.446 -5.12204 5.56138 -481.142 -10.1454 1.66036 -507.144 -17.8939 -3.65319 -8.47041 183.618 -13.9414 -0.774645 210.042 -3.9396 1.18945 236.601 0.805192 0.652667 263.336 2.95244 -0.60699 290.291 3.78647 -1.46099 317.508 3.95786 -1.10338 345.031 3.78366 1.1003 372.906 3.38456 1.37345 394.343 -3.53702 1.0952