<?xml version="1.0"?> 
<VTKFile type="StructuredGrid" version="0.1"> 
<StructuredGrid WholeExtent="0 29 0 29 0 29"> 
<Piece Extent="0 29 0 29 0 29"> 
<PointData>
<DataArray type="Float32" Name="hfield" format="ascii" NumberOfComponents="3"> 
-2228.02 -74.7883 0.910368 -2262.82 -10.1664 0.647116 -2297.9 39.9923 0.417634 -2333.27 78.4611 0.215814 -2368.95 107.379 0.0369401 -2404.94 128.422 -0.122691 -2441.27 142.919 -0.266026 -2477.94 151.94 -0.39544 -2514.97 156.355 -0.512865 -2552.38 156.874 -0.619896 -2590.17 154.089 -0.717852 -2628.37 148.49 -0.807842 -2666.99 140.492 -0.890798 -2706.04 130.444 -0.967516 -2745.54 118.642 -1.03867 -2753.31 115.717 -1.03125 -2729.17 120.811 -0.953208 -2705.28 123.381 -0.880271 -2681.61 123.592 -0.811951 -2658.17 121.587 -0.747824 -2634.95 117.489 -0.687515 -2611.94 111.405 -0.630693 -2589.13 103.426 -0.577063 -2566.51 93.6335 -0.526365 -2544.09 82.0957 -0.478365 -2521.84 68.872 -0.432852 -2499.78 54.0132 -0.389638 -2477.88 37.5625 -0.348554 -2456.15 19.5561 -0.309445 -2434.57 0.024118 -0.272172 -2143.13 -138.392 0.794878 -2186.53 -93.2592 0.567011 -2229.43 -59.1727 0.366971 -2271.96 -34.0875 0.190063 -2314.25 -16.398 0.0325906 -2356.37 -4.82688 -0.108396 -2398.41 1.65402 -0.235276 -2440.44 3.88128 -0.349996 -2482.51 2.54193 -0.454156 -2524.67 -1.79494 -0.54909 -2566.97 -8.65424 -0.635916 -2609.46 -17.6365 -0.715579 -2652.16 -28.4039 -0.788881 -2695.12 -40.6684 -0.85651 -2738.38 -54.184 -0.919058 -2749.6 -57.1392 -0.911949 -2728.71 -50.4559 -0.842358 -2708.02 -45.9353 -0.777299 -2687.54 -43.4316 -0.716358 -2667.27 -42.818 -0.659168 -2647.21 -43.9836 -0.605405 -2627.37 -46.8321 -0.554783 -2607.74 -51.2788 -0.507044 -2588.32 -57.2504 -0.461959 -2569.12 -64.6825 -0.419324 -2550.13 -73.5193 -0.378952 -2531.34 -83.7124 -0.340677 -2512.77 -95.2201 -0.304348 -2494.4 -108.007 -0.269829 -2476.24 -122.042 -0.236995 -2063.76 -207.528 0.695821 -2113.61 -178.641 0.497693 -2162.46 -158.202 0.322808 -2210.51 -144.678 0.167478 -2257.93 -136.848 0.0287566 -2304.85 -133.727 -0.095742 -2351.39 -134.514 -0.207967 -2397.64 -138.55 -0.309528 -2443.7 -145.29 -0.401764 -2489.63 -154.279 -0.485802 -2535.5 -165.133 -0.562593 -2581.37 -177.529 -0.632947 -2627.29 -191.191 -0.697558 -2673.32 -205.885 -0.757025 -2719.5 -221.406 -0.811865 -2733.51 -224.771 -0.805071 -2715.34 -216.946 -0.743096 -2697.35 -210.97 -0.685152 -2679.55 -206.714 -0.630882 -2661.96 -204.067 -0.57997 -2644.57 -202.929 -0.532133 -2627.39 -203.214 -0.487121 -2610.44 -204.846 -0.444711 -2593.71 -207.759 -0.4047 -2577.22 -211.893 -0.366907 -2560.96 -217.197 -0.331169 -2544.94 -223.626 -0.297339 -2529.16 -231.139 -0.265281 -2513.63 -239.705 -0.234875 -2498.34 -249.291 -0.206008 -1988.24 -280.501 0.609445 -2042.91 -265.337 0.436822 -2096.26 -256.61 0.283799 -2148.53 -253.153 0.147433 -2199.9 -254.03 0.0253403 -2250.53 -258.474 -0.0844306 -2300.55 -265.859 -0.183492 -2350.09 -275.665 -0.273186 -2399.24 -287.457 -0.354644 -2448.09 -300.873 -0.428819 -2496.71 -315.604 -0.496526 -2545.19 -331.389 -0.558462 -2593.57 -348.005 -0.61523 -2641.93 -365.261 -0.667351 -2690.31 -382.99 -0.715279 -2706.52 -387.051 -0.70882 -2690.61 -378.438 -0.653768 -2674.87 -371.401 -0.6023 -2659.3 -365.829 -0.554106 -2643.92 -361.622 -0.508913 -2628.75 -358.694 -0.466474 -2613.8 -356.97 -0.426571 -2599.08 -356.38 -0.389007 -2584.59 -356.865 -0.353605 -2570.35 -358.372 -0.320207 -2556.36 -360.855 -0.288666 -2542.63 -364.271 -0.258852 -2529.17 -368.586 -0.230646 -2515.99 -373.766 -0.20394 -2503.09 -379.784 -0.178634 -1915.32 -356.083 0.533011 -1973.56 -352.637 0.382654 -2030.27 -354.043 0.248925 -2085.71 -359.408 0.129445 -2140.07 -368.006 0.0222651 -2193.51 -379.242 -0.0742236 -2246.18 -392.623 -0.161364 -2298.21 -407.74 -0.240283 -2349.69 -424.247 -0.311937 -2400.73 -441.855 -0.377139 -2451.41 -460.319 -0.436587 -2501.8 -479.428 -0.490883 -2551.99 -499.004 -0.540549 -2602.02 -518.894 -0.586038 -2651.97 -538.964 -0.62775 -2669.86 -543.931 -0.621662 -2655.81 -534.805 -0.572955 -2641.91 -527.019 -0.527425 -2628.18 -520.478 -0.484804 -2614.63 -515.096 -0.444854 -2601.28 -510.796 -0.407363 -2588.15 -507.514 -0.372139 -2575.26 -505.188 -0.339009 -2562.6 -503.766 -0.307819 -2550.21 -503.201 -0.278428 -2538.08 -503.451 -0.250707 -2526.23 -504.48 -0.224542 -2514.67 -506.255 -0.199826 -2503.41 -508.747 -0.176463 -2492.45 -511.93 -0.154364 -1844.11 -433.37 0.464462 -1904.92 -440.012 0.333859 -1964.08 -450.243 0.217396 -2021.84 -463.375 0.113133 -2078.38 -478.846 0.01947 -2133.88 -496.191 -0.0649294 -2188.48 -515.026 -0.141187 -2242.31 -535.027 -0.210252 -2295.48 -555.923 -0.272934 -2348.08 -577.485 -0.329927 -2400.21 -599.519 -0.381828 -2451.94 -621.859 -0.429157 -2503.35 -644.364 -0.472364 -2554.5 -666.911 -0.511846 -2605.46 -689.397 -0.547948 -2624.58 -695.42 -0.542275 -2612.04 -685.993 -0.499426 -2599.63 -677.704 -0.45938 -2587.38 -670.47 -0.421906 -2575.31 -664.219 -0.386799 -2563.44 -658.885 -0.353872 -2551.79 -654.411 -0.32296 -2540.37 -650.745 -0.293911 -2529.2 -647.842 -0.26659 -2518.3 -645.66 -0.240874 -2507.67 -644.164 -0.216649 -2497.34 -643.32 -0.193815 -2487.3 -643.101 -0.172277 -2477.58 -643.481 -0.15195 -2468.19 -644.438 -0.132756 -1773.92 -511.679 0.40222 -1836.49 -527.066 0.289398 -1897.35 -545.021 0.188585 -1956.71 -565.018 0.0981947 -2014.77 -586.62 0.0169056 -2071.69 -609.469 -0.0563912 -2127.62 -633.264 -0.122634 -2182.67 -657.754 -0.182622 -2236.96 -682.728 -0.237039 -2290.58 -708.006 -0.286475 -2343.63 -733.437 -0.331441 -2396.18 -758.894 -0.372383 -2448.32 -784.266 -0.409689 -2500.1 -809.459 -0.443701 -2551.6 -834.393 -0.474721 -2571.55 -841.572 -0.469506 -2560.2 -832.005 -0.432108 -2548.98 -823.401 -0.397165 -2537.92 -815.692 -0.364479 -2527.03 -808.816 -0.333872 -2516.34 -802.717 -0.305184 -2505.87 -797.347 -0.278271 -2495.63 -792.662 -0.253001 -2485.64 -788.624 -0.229257 -2475.92 -785.197 -0.206931 -2466.48 -782.351 -0.185924 -2457.34 -780.057 -0.166148 -2448.51 -778.293 -0.147521 -2440.01 -777.035 -0.129967 -2431.84 -776.265 -0.113417 -1704.23 -590.494 0.345047 -1767.9 -613.496 0.248446 -1829.81 -638.239 0.16199 -1890.17 -664.318 0.0843814 -1949.18 -691.401 0.0145314 -2006.97 -719.211 -0.0484786 -2063.7 -747.518 -0.10543 -2119.47 -776.129 -0.156993 -2174.4 -804.883 -0.203742 -2228.57 -833.643 -0.246177 -2282.09 -862.293 -0.284731 -2335.02 -890.738 -0.319782 -2387.45 -918.894 -0.351665 -2439.44 -946.692 -0.380671 -2491.05 -974.073 -0.407061 -2511.49 -982.471 -0.402347 -2501.08 -972.882 -0.370059 -2490.79 -964.108 -0.339899 -2480.65 -956.092 -0.311697 -2470.69 -948.781 -0.285303 -2460.92 -942.132 -0.260577 -2451.37 -936.102 -0.237397 -2442.05 -930.657 -0.21565 -2432.98 -925.763 -0.195234 -2424.18 -921.391 -0.176055 -2415.67 -917.517 -0.15803 -2407.45 -914.118 -0.14108 -2399.56 -911.173 -0.125135 -2391.99 -908.664 -0.110128 -2384.77 -906.576 -0.0960014 -1634.66 -669.416 0.291948 -1698.83 -699.076 0.210333 -1761.25 -729.797 0.137198 -1822.1 -761.275 0.0714879 -1881.55 -793.26 0.0123132 -1939.75 -825.543 -0.0410819 -1996.81 -857.952 -0.0893432 -2052.87 -890.342 -0.133026 -2108.01 -922.593 -0.172609 -2162.33 -954.605 -0.20851 -2215.91 -986.293 -0.241092 -2268.84 -1017.59 -0.270675 -2321.18 -1048.43 -0.29754 -2373 -1078.77 -0.321933 -2424.37 -1108.57 -0.344077 -2445.01 -1118.22 -0.339905 -2435.31 -1108.69 -0.312444 -2425.73 -1099.86 -0.286799 -2416.3 -1091.66 -0.262828 -2407.04 -1084.06 -0.240404 -2397.98 -1077.03 -0.219409 -2389.13 -1070.53 -0.199738 -2380.51 -1064.53 -0.181297 -2372.14 -1059 -0.163998 -2364.05 -1053.93 -0.147763 -2356.24 -1049.29 -0.132518 -2348.73 -1045.06 -0.118198 -2341.53 -1041.23 -0.104741 -2334.67 -1037.78 -0.0920932 -2328.16 -1034.71 -0.0802016 -1564.88 -748.14 0.242111 -1629.07 -783.631 0.174503 -1691.51 -819.625 0.113862 -1752.38 -855.898 0.0593411 -1811.84 -892.267 0.0102222 -1870.02 -928.581 -0.0341067 -1927.02 -964.714 -0.0741709 -1982.97 -1000.56 -0.110423 -2037.95 -1036.04 -0.143257 -2092.06 -1071.08 -0.173014 -2145.36 -1105.63 -0.199994 -2197.94 -1139.63 -0.22446 -2249.87 -1173.04 -0.246646 -2301.2 -1205.85 -0.266757 -2352.01 -1238.01 -0.284976 -2372.6 -1248.92 -0.281384 -2363.41 -1239.52 -0.258514 -2354.35 -1230.7 -0.237164 -2345.45 -1222.42 -0.217214 -2336.71 -1214.65 -0.198558 -2328.18 -1207.36 -0.181101 -2319.85 -1200.53 -0.164754 -2311.76 -1194.14 -0.149438 -2303.91 -1188.16 -0.135081 -2296.34 -1182.57 -0.121617 -2289.04 -1177.37 -0.108986 -2282.05 -1172.53 -0.0971315 -2275.37 -1168.05 -0.0860032 -2269.02 -1163.92 -0.0755544 -2263.02 -1160.13 -0.0657419 -1494.67 -826.429 0.194856 -1558.41 -867.032 0.140488 -1620.44 -907.677 0.0916885 -1680.93 -948.207 0.047792 -1740 -988.494 0.00823337 -1797.77 -1028.43 -0.027471 -1854.36 -1067.94 -0.0597371 -1909.85 -1106.95 -0.0889251 -1964.34 -1145.4 -0.115348 -2017.91 -1183.25 -0.139279 -2070.63 -1220.47 -0.160959 -2122.56 -1257.03 -0.180598 -2173.78 -1292.9 -0.198385 -2224.35 -1328.07 -0.214483 -2274.32 -1362.54 -0.229043 -2294.64 -1374.69 -0.22606 -2285.82 -1365.45 -0.207594 -2277.13 -1356.69 -0.190358 -2268.59 -1348.4 -0.174258 -2260.23 -1340.54 -0.159208 -2252.07 -1333.1 -0.14513 -2244.12 -1326.05 -0.131954 -2236.41 -1319.39 -0.119616 -2228.94 -1313.09 -0.108057 -2221.73 -1307.14 -0.0972249 -2214.81 -1301.54 -0.0870696 -2208.18 -1296.27 -0.0775465 -2201.86 -1291.33 -0.0686142 -2195.87 -1286.71 -0.060235 -2190.22 -1282.41 -0.0523736 -1423.85 -904.104 0.1496 -1486.71 -949.185 0.107884 -1547.93 -993.927 0.0704213 -1607.64 -1038.23 0.0367102 -1665.96 -1082.01 0.00632453 -1723 -1125.2 -0.0211018 -1778.84 -1167.76 -0.0458845 -1833.56 -1209.64 -0.0682973 -1887.26 -1250.82 -0.0885787 -1940.01 -1291.27 -0.106938 -1991.86 -1330.98 -0.123557 -2042.88 -1369.94 -0.1386 -2093.14 -1408.14 -0.152209 -2142.69 -1445.58 -0.164513 -2191.59 -1482.27 -0.175624 -2211.46 -1495.64 -0.173277 -2202.86 -1486.57 -0.159064 -2194.41 -1477.91 -0.1458 -2186.12 -1469.65 -0.133414 -2178.02 -1461.76 -0.121839 -2170.11 -1454.23 -0.111015 -2162.43 -1447.05 -0.100889 -2154.97 -1440.21 -0.0914113 -2147.76 -1433.7 -0.0825367 -2140.82 -1427.51 -0.074224 -2134.15 -1421.63 -0.0664355 -2127.77 -1416.07 -0.0591365 -2121.69 -1410.81 -0.0522951 -2115.94 -1405.85 -0.045882 -2110.52 -1401.2 -0.03987 -1352.28 -981.032 0.105833 -1413.86 -1030.02 0.0763342 -1473.89 -1078.36 0.0498325 -1532.47 -1125.99 0.0259791 -1589.7 -1172.87 0.00447584 -1645.66 -1218.98 -0.0149334 -1700.45 -1264.28 -0.0324702 -1754.12 -1308.77 -0.0483267 -1806.75 -1352.43 -0.0626707 -1858.41 -1395.27 -0.0756496 -1909.15 -1437.3 -0.0873926 -1959.03 -1478.5 -0.0980144 -2008.1 -1518.89 -0.107616 -2056.42 -1558.49 -0.116289 -2104.03 -1597.31 -0.124112 -2123.29 -1611.85 -0.122422 -2114.81 -1602.96 -0.112348 -2106.49 -1594.41 -0.10295 -2098.35 -1586.2 -0.094174 -2090.41 -1578.32 -0.0859751 -2082.67 -1570.75 -0.0783107 -2075.15 -1563.49 -0.0711424 -2067.86 -1556.54 -0.0644352 -2060.83 -1549.89 -0.0581573 -2054.05 -1543.54 -0.0522792 -2047.55 -1537.48 -0.0467743 -2041.33 -1531.72 -0.0416179 -2035.42 -1526.25 -0.0367873 -2029.82 -1521.08 -0.0322617 -2024.54 -1516.21 -0.0280216 -1279.86 -1057.12 0.0630969 -1339.77 -1109.51 0.0455145 -1398.23 -1160.99 0.0297148 -1455.32 -1211.54 0.0154917 -1511.14 -1261.16 0.00266904 -1565.73 -1309.84 -0.00890501 -1619.17 -1357.6 -0.0193617 -1671.52 -1404.43 -0.0288151 -1722.83 -1450.35 -0.0373651 -1773.16 -1495.38 -0.045099 -1822.56 -1539.53 -0.0520939 -1871.07 -1582.82 -0.0584181 -1918.75 -1625.27 -0.0641321 -1965.65 -1666.9 -0.0692896 -2011.79 -1707.74 -0.073939 -2030.31 -1723.39 -0.0729188 -2021.86 -1714.66 -0.0669061 -2013.59 -1706.23 -0.0612966 -2005.52 -1698.08 -0.0560598 -1997.65 -1690.22 -0.0511678 -1990.01 -1682.64 -0.0465956 -1982.59 -1675.34 -0.0423202 -1975.42 -1668.32 -0.0383208 -1968.49 -1661.59 -0.0345783 -1961.83 -1655.13 -0.0310751 -1955.43 -1648.96 -0.0277953 -1949.32 -1643.07 -0.0247241 -1943.51 -1637.47 -0.0218481 -1937.99 -1632.16 -0.0191545 -1932.8 -1627.15 -0.016632 -1206.55 -1132.3 0.0209658 -1264.37 -1187.62 0.0151242 -1320.89 -1241.82 0.0098744 -1376.16 -1294.91 0.00514809 -1430.23 -1346.93 0.00088696 -1483.15 -1397.88 -0.00295922 -1534.97 -1447.8 -0.00643396 -1585.74 -1496.73 -0.0095751 -1635.48 -1544.68 -0.0124157 -1684.26 -1591.68 -0.0149848 -1732.1 -1637.77 -0.017308 -1779.06 -1682.98 -0.019408 -1825.16 -1727.34 -0.0213048 -1870.45 -1770.87 -0.0230164 -1914.97 -1813.62 -0.0245587 -1932.63 -1830.31 -0.0242177 -1924.13 -1821.72 -0.0222187 -1915.85 -1813.38 -0.0203538 -1907.79 -1805.29 -0.0186129 -1899.96 -1797.45 -0.0169868 -1892.36 -1789.87 -0.0154671 -1885 -1782.54 -0.0140462 -1877.89 -1775.48 -0.0127172 -1871.03 -1768.68 -0.0114737 -1864.44 -1762.15 -0.0103099 -1858.13 -1755.89 -0.00922047 -1852.09 -1749.92 -0.00820051 -1846.34 -1744.24 -0.0072455 -1840.89 -1738.85 -0.00635128 -1835.75 -1733.76 -0.00551401 -1132.3 -1206.55 -0.0209658 -1187.62 -1264.37 -0.0151242 -1241.82 -1320.89 -0.00987439 -1294.91 -1376.16 -0.00514808 -1346.93 -1430.23 -0.000886953 -1397.88 -1483.15 0.00295923 -1447.8 -1534.97 0.00643397 -1496.73 -1585.74 0.00957511 -1544.68 -1635.48 0.0124157 -1591.68 -1684.26 0.0149848 -1637.77 -1732.1 0.017308 -1682.98 -1779.06 0.019408 -1727.34 -1825.16 0.0213048 -1770.87 -1870.45 0.0230164 -1813.62 -1914.97 0.0245587 -1830.31 -1932.63 0.0242177 -1821.72 -1924.13 0.0222187 -1813.38 -1915.85 0.0203538 -1805.29 -1907.79 0.0186129 -1797.45 -1899.96 0.0169868 -1789.87 -1892.36 0.0154671 -1782.54 -1885 0.0140462 -1775.48 -1877.89 0.0127172 -1768.68 -1871.03 0.0114737 -1762.15 -1864.44 0.0103099 -1755.89 -1858.13 0.00922048 -1749.92 -1852.09 0.00820052 -1744.24 -1846.34 0.00724552 -1738.85 -1840.89 0.0063513 -1733.76 -1835.75 0.00551402 -1057.12 -1279.86 -0.0630969 -1109.51 -1339.77 -0.0455145 -1160.99 -1398.23 -0.0297148 -1211.54 -1455.32 -0.0154917 -1261.16 -1511.14 -0.00266904 -1309.84 -1565.73 0.00890502 -1357.6 -1619.17 0.0193617 -1404.43 -1671.52 0.0288151 -1450.35 -1722.83 0.0373651 -1495.38 -1773.16 0.045099 -1539.53 -1822.56 0.0520939 -1582.82 -1871.07 0.0584181 -1625.27 -1918.75 0.0641321 -1666.9 -1965.65 0.0692896 -1707.74 -2011.79 0.073939 -1723.39 -2030.31 0.0729188 -1714.66 -2021.86 0.0669061 -1706.23 -2013.59 0.0612967 -1698.08 -2005.52 0.0560598 -1690.22 -1997.65 0.0511678 -1682.64 -1990.01 0.0465956 -1675.34 -1982.59 0.0423202 -1668.32 -1975.42 0.0383208 -1661.59 -1968.49 0.0345783 -1655.13 -1961.83 0.0310751 -1648.96 -1955.43 0.0277953 -1643.07 -1949.32 0.0247242 -1637.47 -1943.51 0.0218481 -1632.16 -1937.99 0.0191545 -1627.15 -1932.8 0.016632 -981.032 -1352.28 -0.105833 -1030.02 -1413.86 -0.0763342 -1078.36 -1473.89 -0.0498325 -1125.99 -1532.47 -0.0259791 -1172.87 -1589.7 -0.00447583 -1218.98 -1645.66 0.0149334 -1264.28 -1700.45 0.0324702 -1308.77 -1754.12 0.0483267 -1352.43 -1806.75 0.0626708 -1395.27 -1858.41 0.0756496 -1437.3 -1909.15 0.0873926 -1478.5 -1959.03 0.0980144 -1518.89 -2008.1 0.107616 -1558.49 -2056.42 0.116289 -1597.31 -2104.03 0.124112 -1611.85 -2123.29 0.122422 -1602.96 -2114.81 0.112348 -1594.41 -2106.49 0.10295 -1586.2 -2098.35 0.0941741 -1578.32 -2090.41 0.0859751 -1570.75 -2082.67 0.0783107 -1563.49 -2075.15 0.0711424 -1556.54 -2067.86 0.0644352 -1549.89 -2060.83 0.0581573 -1543.54 -2054.05 0.0522793 -1537.48 -2047.55 0.0467744 -1531.72 -2041.33 0.041618 -1526.25 -2035.42 0.0367874 -1521.08 -2029.82 0.0322617 -1516.21 -2024.54 0.0280216 -904.104 -1423.85 -0.1496 -949.185 -1486.71 -0.107884 -993.927 -1547.93 -0.0704213 -1038.23 -1607.64 -0.0367102 -1082.01 -1665.96 -0.00632452 -1125.2 -1723 0.0211018 -1167.76 -1778.84 0.0458845 -1209.64 -1833.56 0.0682973 -1250.82 -1887.26 0.0885787 -1291.27 -1940.01 0.106938 -1330.98 -1991.86 0.123557 -1369.94 -2042.88 0.1386 -1408.14 -2093.14 0.152209 -1445.58 -2142.69 0.164513 -1482.27 -2191.59 0.175624 -1495.64 -2211.46 0.173277 -1486.57 -2202.86 0.159064 -1477.91 -2194.41 0.1458 -1469.65 -2186.12 0.133414 -1461.76 -2178.02 0.121839 -1454.23 -2170.11 0.111015 -1447.05 -2162.43 0.100889 -1440.21 -2154.97 0.0914114 -1433.7 -2147.76 0.0825367 -1427.51 -2140.82 0.074224 -1421.63 -2134.15 0.0664355 -1416.07 -2127.77 0.0591365 -1410.81 -2121.69 0.0522952 -1405.85 -2115.94 0.045882 -1401.2 -2110.52 0.0398701 -826.429 -1494.67 -0.194856 -867.032 -1558.41 -0.140488 -907.677 -1620.44 -0.0916885 -948.207 -1680.93 -0.047792 -988.494 -1740 -0.00823337 -1028.43 -1797.77 0.027471 -1067.94 -1854.36 0.0597371 -1106.95 -1909.85 0.0889252 -1145.4 -1964.34 0.115348 -1183.25 -2017.91 0.139279 -1220.47 -2070.63 0.160959 -1257.03 -2122.56 0.180598 -1292.9 -2173.78 0.198385 -1328.07 -2224.35 0.214483 -1362.54 -2274.32 0.229043 -1374.69 -2294.64 0.22606 -1365.45 -2285.82 0.207594 -1356.69 -2277.13 0.190358 -1348.4 -2268.59 0.174258 -1340.54 -2260.23 0.159208 -1333.1 -2252.07 0.14513 -1326.05 -2244.12 0.131954 -1319.39 -2236.41 0.119616 -1313.09 -2228.94 0.108057 -1307.14 -2221.73 0.097225 -1301.54 -2214.81 0.0870696 -1296.27 -2208.18 0.0775465 -1291.33 -2201.86 0.0686143 -1286.71 -2195.87 0.060235 -1282.41 -2190.22 0.0523737 -748.14 -1564.88 -0.242111 -783.631 -1629.07 -0.174503 -819.625 -1691.51 -0.113862 -855.898 -1752.38 -0.0593411 -892.267 -1811.84 -0.0102222 -928.581 -1870.02 0.0341067 -964.714 -1927.02 0.0741709 -1000.56 -1982.97 0.110423 -1036.04 -2037.95 0.143257 -1071.08 -2092.06 0.173014 -1105.63 -2145.36 0.199994 -1139.63 -2197.94 0.22446 -1173.04 -2249.87 0.246646 -1205.85 -2301.2 0.266757 -1238.01 -2352.01 0.284976 -1248.92 -2372.6 0.281384 -1239.52 -2363.41 0.258514 -1230.7 -2354.35 0.237164 -1222.42 -2345.45 0.217214 -1214.65 -2336.71 0.198558 -1207.36 -2328.18 0.181101 -1200.53 -2319.85 0.164754 -1194.14 -2311.76 0.149438 -1188.16 -2303.91 0.135081 -1182.57 -2296.34 0.121617 -1177.37 -2289.04 0.108986 -1172.53 -2282.05 0.0971315 -1168.05 -2275.37 0.0860032 -1163.92 -2269.02 0.0755544 -1160.13 -2263.02 0.0657419 -669.416 -1634.66 -0.291948 -699.076 -1698.83 -0.210333 -729.797 -1761.25 -0.137198 -761.275 -1822.1 -0.0714879 -793.26 -1881.55 -0.0123132 -825.543 -1939.75 0.0410819 -857.952 -1996.81 0.0893432 -890.342 -2052.87 0.133026 -922.593 -2108.01 0.172609 -954.605 -2162.33 0.20851 -986.293 -2215.91 0.241092 -1017.59 -2268.84 0.270675 -1048.43 -2321.18 0.29754 -1078.77 -2373 0.321933 -1108.57 -2424.37 0.344077 -1118.22 -2445.01 0.339905 -1108.69 -2435.31 0.312444 -1099.86 -2425.73 0.286799 -1091.66 -2416.3 0.262828 -1084.06 -2407.04 0.240404 -1077.03 -2397.98 0.219409 -1070.53 -2389.13 0.199738 -1064.53 -2380.51 0.181297 -1059 -2372.14 0.163998 -1053.93 -2364.05 0.147763 -1049.29 -2356.24 0.132518 -1045.06 -2348.73 0.118198 -1041.23 -2341.53 0.104741 -1037.78 -2334.67 0.0920932 -1034.71 -2328.16 0.0802016 -590.494 -1704.23 -0.345047 -613.496 -1767.9 -0.248446 -638.239 -1829.81 -0.16199 -664.318 -1890.17 -0.0843814 -691.401 -1949.18 -0.0145314 -719.211 -2006.97 0.0484786 -747.518 -2063.7 0.10543 -776.129 -2119.47 0.156993 -804.883 -2174.4 0.203742 -833.643 -2228.57 0.246177 -862.293 -2282.09 0.284731 -890.738 -2335.02 0.319782 -918.894 -2387.45 0.351665 -946.692 -2439.44 0.380671 -974.073 -2491.05 0.407061 -982.471 -2511.49 0.402347 -972.882 -2501.08 0.370059 -964.108 -2490.79 0.339899 -956.092 -2480.65 0.311697 -948.781 -2470.69 0.285303 -942.132 -2460.92 0.260577 -936.102 -2451.37 0.237397 -930.657 -2442.05 0.21565 -925.763 -2432.98 0.195234 -921.391 -2424.18 0.176055 -917.517 -2415.67 0.15803 -914.118 -2407.45 0.14108 -911.173 -2399.56 0.125135 -908.664 -2391.99 0.110128 -906.576 -2384.77 0.0960014 -511.679 -1773.92 -0.40222 -527.066 -1836.49 -0.289398 -545.021 -1897.35 -0.188585 -565.018 -1956.71 -0.0981947 -586.62 -2014.77 -0.0169056 -609.469 -2071.69 0.0563912 -633.264 -2127.62 0.122634 -657.754 -2182.67 0.182622 -682.728 -2236.96 0.237039 -708.006 -2290.58 0.286475 -733.437 -2343.63 0.331441 -758.894 -2396.18 0.372383 -784.266 -2448.32 0.409689 -809.459 -2500.1 0.443701 -834.393 -2551.6 0.474721 -841.572 -2571.55 0.469506 -832.005 -2560.2 0.432108 -823.401 -2548.98 0.397165 -815.692 -2537.92 0.364479 -808.816 -2527.03 0.333872 -802.717 -2516.34 0.305184 -797.347 -2505.87 0.278271 -792.662 -2495.63 0.253001 -788.624 -2485.64 0.229257 -785.197 -2475.92 0.206931 -782.351 -2466.48 0.185924 -780.057 -2457.34 0.166148 -778.293 -2448.51 0.147521 -777.035 -2440.01 0.129967 -776.265 -2431.84 0.113417 -433.37 -1844.11 -0.464462 -440.012 -1904.92 -0.333859 -450.243 -1964.08 -0.217396 -463.375 -2021.84 -0.113133 -478.846 -2078.38 -0.01947 -496.191 -2133.88 0.0649294 -515.026 -2188.48 0.141187 -535.027 -2242.31 0.210252 -555.923 -2295.48 0.272934 -577.485 -2348.08 0.329927 -599.519 -2400.21 0.381828 -621.859 -2451.94 0.429157 -644.364 -2503.35 0.472364 -666.911 -2554.5 0.511846 -689.397 -2605.46 0.547948 -695.42 -2624.58 0.542275 -685.993 -2612.04 0.499426 -677.704 -2599.63 0.45938 -670.47 -2587.38 0.421906 -664.219 -2575.31 0.386799 -658.885 -2563.44 0.353872 -654.411 -2551.79 0.32296 -650.745 -2540.37 0.293911 -647.842 -2529.2 0.26659 -645.66 -2518.3 0.240874 -644.164 -2507.67 0.216649 -643.32 -2497.34 0.193815 -643.101 -2487.3 0.172277 -643.481 -2477.58 0.15195 -644.438 -2468.19 0.132756 -356.083 -1915.32 -0.533011 -352.637 -1973.56 -0.382654 -354.043 -2030.27 -0.248925 -359.408 -2085.71 -0.129445 -368.006 -2140.07 -0.0222651 -379.242 -2193.51 0.0742236 -392.623 -2246.18 0.161364 -407.74 -2298.21 0.240283 -424.247 -2349.69 0.311937 -441.855 -2400.73 0.377139 -460.319 -2451.41 0.436587 -479.428 -2501.8 0.490883 -499.004 -2551.99 0.540549 -518.894 -2602.02 0.586038 -538.964 -2651.97 0.62775 -543.931 -2669.86 0.621662 -534.805 -2655.81 0.572955 -527.019 -2641.91 0.527425 -520.478 -2628.18 0.484804 -515.096 -2614.63 0.444854 -510.796 -2601.28 0.407363 -507.514 -2588.15 0.372139 -505.188 -2575.26 0.339009 -503.766 -2562.6 0.307819 -503.201 -2550.21 0.278428 -503.451 -2538.08 0.250707 -504.48 -2526.23 0.224542 -506.255 -2514.67 0.199826 -508.747 -2503.41 0.176463 -511.93 -2492.45 0.154364 -280.501 -1988.24 -0.609445 -265.337 -2042.91 -0.436822 -256.61 -2096.26 -0.283799 -253.153 -2148.53 -0.147433 -254.03 -2199.9 -0.0253403 -258.474 -2250.53 0.0844306 -265.859 -2300.55 0.183492 -275.665 -2350.09 0.273186 -287.457 -2399.24 0.354644 -300.873 -2448.09 0.428819 -315.604 -2496.71 0.496526 -331.389 -2545.19 0.558462 -348.005 -2593.57 0.61523 -365.261 -2641.93 0.667351 -382.99 -2690.31 0.715279 -387.051 -2706.52 0.70882 -378.438 -2690.61 0.653768 -371.401 -2674.87 0.6023 -365.829 -2659.3 0.554106 -361.622 -2643.92 0.508913 -358.694 -2628.75 0.466474 -356.97 -2613.8 0.426571 -356.38 -2599.08 0.389007 -356.865 -2584.59 0.353605 -358.372 -2570.35 0.320207 -360.855 -2556.36 0.288666 -364.271 -2542.63 0.258852 -368.586 -2529.17 0.230646 -373.766 -2515.99 0.20394 -379.784 -2503.09 0.178634 -207.528 -2063.76 -0.695821 -178.641 -2113.61 -0.497693 -158.202 -2162.46 -0.322808 -144.678 -2210.51 -0.167478 -136.848 -2257.93 -0.0287566 -133.727 -2304.85 0.095742 -134.514 -2351.39 0.207967 -138.55 -2397.64 0.309528 -145.29 -2443.7 0.401764 -154.279 -2489.63 0.485802 -165.133 -2535.5 0.562593 -177.529 -2581.37 0.632947 -191.191 -2627.29 0.697558 -205.885 -2673.32 0.757025 -221.406 -2719.5 0.811865 -224.771 -2733.51 0.805071 -216.946 -2715.34 0.743096 -210.97 -2697.35 0.685152 -206.714 -2679.55 0.630882 -204.067 -2661.96 0.57997 -202.929 -2644.57 0.532133 -203.214 -2627.39 0.487122 -204.846 -2610.44 0.444711 -207.759 -2593.71 0.4047 -211.893 -2577.22 0.366907 -217.197 -2560.96 0.331169 -223.626 -2544.94 0.297339 -231.139 -2529.16 0.265281 -239.705 -2513.63 0.234875 -249.291 -2498.34 0.206008 -138.392 -2143.13 -0.794878 -93.2592 -2186.53 -0.567011 -59.1727 -2229.43 -0.366971 -34.0875 -2271.96 -0.190063 -16.398 -2314.25 -0.0325906 -4.82688 -2356.37 0.108396 1.65402 -2398.41 0.235276 3.88128 -2440.44 0.349996 2.54193 -2482.51 0.454156 -1.79494 -2524.67 0.54909 -8.65424 -2566.97 0.635916 -17.6365 -2609.46 0.715579 -28.4039 -2652.16 0.788881 -40.6684 -2695.12 0.85651 -54.184 -2738.38 0.919058 -57.1392 -2749.6 0.911949 -50.4559 -2728.71 0.842358 -45.9353 -2708.02 0.777299 -43.4316 -2687.54 0.716358 -42.818 -2667.27 0.659168 -43.9836 -2647.21 0.605405 -46.8321 -2627.37 0.554783 -51.2788 -2607.74 0.507044 -57.2504 -2588.32 0.461959 -64.6825 -2569.12 0.419324 -73.5193 -2550.13 0.378952 -83.7124 -2531.34 0.340677 -95.2201 -2512.77 0.304348 -108.007 -2494.4 0.269829 -122.042 -2476.24 0.236995 -74.7883 -2228.02 -0.910368 -10.1664 -2262.82 -0.647116 39.9923 -2297.9 -0.417634 78.4611 -2333.27 -0.215814 107.379 -2368.95 -0.0369401 128.422 -2404.94 0.122691 142.919 -2441.27 0.266026 151.94 -2477.94 0.39544 156.355 -2514.97 0.512865 156.874 -2552.38 0.619896 154.089 -2590.17 0.717852 148.49 -2628.37 0.807842 140.492 -2666.99 0.890798 130.444 -2706.04 0.967516 118.642 -2745.54 1.03867 115.717 -2753.31 1.03125 120.811 -2729.17 0.953208 123.381 -2705.28 0.880271 123.592 -2681.61 0.811951 121.587 -2658.17 0.747824 117.489 -2634.95 0.687515 111.405 -2611.94 0.630693 103.426 -2589.13 0.577063 93.6335 -2566.51 0.526365 82.0957 -2544.09 0.478365 68.872 -2521.84 0.432852 54.0132 -2499.78 0.389638 37.5625 -2477.88 0.348554 19.5561 -2456.15 0.309445 0.024118 -2434.57 0.272172 -2070.51 -70.036 2.60054 -2103.55 -9.69396 2.16444 -2136.8 37.0354 1.8668 -2170.28 72.7792 1.66865 -2203.99 99.5622 1.54018 -2237.95 118.969 1.45821 -2272.18 132.258 1.40456 -2306.67 140.439 1.36475 -2341.45 144.333 1.32716 -2376.53 144.612 1.28238 -2411.92 141.834 1.22275 -2447.64 136.462 1.14196 -2483.7 128.887 1.03478 -2520.11 119.438 0.896905 -2556.88 108.398 0.724695 -2563.41 105.884 0.791756 -2539.59 111.01 1.08369 -2516.01 113.718 1.3189 -2492.66 114.171 1.49664 -2469.54 112.51 1.61612 -2446.65 108.859 1.67649 -2423.97 103.323 1.67687 -2401.5 95.995 1.61631 -2379.23 86.9553 1.49383 -2357.15 76.2732 1.30839 -2335.27 64.0086 1.05888 -2313.57 50.2134 0.744163 -2292.04 34.9317 0.363013 -2270.69 18.2012 -0.0858446 -2249.5 0.0535002 -0.603751 -1991.53 -129.023 1.52216 -2032.66 -86.8582 1.22119 -2073.26 -55.0942 1.02665 -2113.45 -31.7932 0.908074 -2153.34 -15.4344 0.84184 -2193.01 -4.80853 0.809409 -2232.55 1.05737 0.796091 -2272 2.95459 0.790149 -2311.44 1.53281 0.782135 -2350.89 -2.66994 0.764402 -2390.41 -9.20461 0.730727 -2430.03 -17.6937 0.676026 -2469.8 -27.8177 0.596136 -2509.73 -39.3046 0.487637 -2549.87 -51.9217 0.347719 -2559.58 -54.4638 0.423292 -2538.83 -47.868 0.701366 -2518.28 -43.3462 0.928386 -2497.93 -40.7538 1.10391 -2477.78 -39.9648 1.22747 -2457.83 -40.8693 1.29856 -2438.08 -43.3711 1.31665 -2418.54 -47.386 1.28113 -2399.2 -52.8403 1.19141 -2380.06 -59.6696 1.0468 -2361.13 -67.8175 0.846609 -2342.39 -77.235 0.590071 -2323.86 -87.8793 0.276383 -2305.52 -99.7136 -0.0953138 -2287.38 -112.706 -0.52593 -1917.63 -193.091 0.723446 -1964.84 -166.106 0.519499 -2011.04 -147.076 0.398692 -2056.42 -134.548 0.33664 -2101.12 -127.364 0.314238 -2145.28 -124.592 0.316382 -2189.01 -125.472 0.331042 -2232.4 -129.382 0.348576 -2275.52 -135.805 0.361225 -2318.45 -144.309 0.362719 -2361.25 -154.534 0.347984 -2403.97 -166.172 0.31291 -2446.66 -178.963 0.254169 -2489.36 -192.684 0.169076 -2532.12 -207.142 0.0554701 -2544.41 -210.058 0.135527 -2526.27 -202.402 0.397522 -2508.28 -196.519 0.613754 -2490.46 -192.28 0.784035 -2472.81 -189.575 0.908151 -2455.35 -188.307 0.985868 -2438.08 -188.389 1.01692 -2421.01 -189.746 1.00101 -2404.14 -192.311 0.937814 -2387.48 -196.024 0.826968 -2371.03 -200.835 0.668073 -2354.79 -206.696 0.460693 -2338.77 -213.569 0.204352 -2322.97 -221.418 -0.101471 -2307.39 -230.213 -0.457338 -1847.27 -260.69 0.140848 -1899.04 -246.552 0.0069897 -1949.49 -238.472 -0.0611341 -1998.84 -235.345 -0.0833868 -2047.26 -236.281 -0.0754493 -2094.9 -240.556 -0.049785 -2141.9 -247.576 -0.0163522 -2188.35 -256.847 0.0168621 -2234.35 -267.959 0.0434373 -2279.98 -280.566 0.0582082 -2325.31 -294.378 0.0570233 -2370.42 -309.147 0.0365556 -2415.35 -324.661 -0.00584725 -2460.16 -340.739 -0.0722826 -2504.9 -357.223 -0.164389 -2519.23 -360.775 -0.0830298 -2503.26 -352.382 0.161231 -2487.41 -345.497 0.364668 -2471.7 -340.011 0.527287 -2456.16 -335.826 0.649079 -2440.78 -332.856 0.730016 -2425.58 -331.024 0.770049 -2410.57 -330.265 0.769106 -2395.76 -330.517 0.727089 -2381.16 -331.728 0.643874 -2366.78 -333.851 0.519306 -2352.62 -336.844 0.353199 -2338.68 -340.67 0.145337 -2324.98 -345.298 -0.104535 -2311.52 -350.697 -0.396706 -1779.32 -330.7 -0.272145 -1834.47 -327.551 -0.355423 -1888.1 -328.963 -0.386281 -1940.45 -334.091 -0.381098 -1991.69 -342.245 -0.352874 -2041.98 -352.86 -0.31198 -2091.45 -365.471 -0.266717 -2140.23 -379.688 -0.223737 -2188.41 -395.184 -0.188375 -2236.07 -411.684 -0.164897 -2283.31 -428.956 -0.156705 -2330.18 -446.8 -0.166488 -2376.76 -465.046 -0.196354 -2423.09 -483.548 -0.247925 -2469.24 -502.18 -0.322423 -2485.14 -506.558 -0.242282 -2470.97 -497.681 -0.0169844 -2456.89 -490.083 0.172102 -2442.93 -483.669 0.32513 -2429.12 -478.354 0.442241 -2415.46 -474.065 0.523565 -2401.97 -470.735 0.569215 -2388.66 -468.304 0.579287 -2375.55 -466.72 0.553859 -2362.65 -465.936 0.492984 -2349.97 -465.911 0.396694 -2337.51 -466.606 0.264994 -2325.28 -467.99 0.0978627 -2313.3 -470.032 -0.104749 -2301.57 -472.706 -0.342922 -1712.94 -402.292 -0.550477 -1770.54 -408.621 -0.59759 -1826.49 -418.316 -0.602676 -1881.03 -430.725 -0.57934 -1934.34 -445.316 -0.538425 -1986.58 -461.648 -0.488597 -2037.88 -479.354 -0.436797 -2088.35 -498.129 -0.38858 -2138.11 -517.714 -0.348384 -2187.23 -537.892 -0.319735 -2235.81 -558.479 -0.305416 -2283.92 -579.315 -0.307597 -2331.61 -600.266 -0.327941 -2378.97 -621.217 -0.367692 -2426.03 -642.066 -0.427741 -2443.09 -647.409 -0.35082 -2430.38 -638.242 -0.145394 -2417.74 -630.154 0.0281377 -2405.22 -623.066 0.170029 -2392.82 -616.905 0.280531 -2380.56 -611.607 0.359883 -2368.46 -607.115 0.408315 -2356.54 -603.377 0.426045 -2344.81 -600.348 0.413273 -2333.29 -597.987 0.370183 -2321.98 -596.257 0.296941 -2310.9 -595.127 0.19369 -2300.05 -594.567 0.0605534 -2289.46 -594.551 -0.10237 -2279.12 -595.056 -0.295008 -1647.53 -474.841 -0.721019 -1706.8 -489.398 -0.742792 -1764.36 -506.357 -0.730799 -1820.43 -525.215 -0.696373 -1875.18 -545.561 -0.648567 -1928.77 -567.052 -0.594631 -1981.32 -589.402 -0.540367 -2032.95 -6