<?xml version="1.0"?> 
<VTKFile type="StructuredGrid" version="0.1"> 
<StructuredGrid WholeExtent="0 14 0 14 0 29"> 
<Piece Extent="0 14 0 14 0 29"> 
<PointData>
<DataArray type="Float32" Name="hfield" format="ascii" NumberOfComponents="3"> 
3926.99 -128.036 9.82254e-11 4059.22 74.8614 2.68047e-10 4191.44 191.417 3.97881e-10 4323.67 250.872 5.0039e-10 4455.89 271.334 5.8273e-10 4588.12 264.617 6.51141e-10 4720.34 238.755 7.10189e-10 4852.57 199.405 7.5795e-10 4764.25 216.56 7.77784e-10 4675.93 214.955 7.9357e-10 4587.61 197.235 8.07607e-10 4499.29 165.438 8.1918e-10 4410.96 121.16 8.32898e-10 4322.64 65.6735 8.43244e-10 4234.32 -1.06543e-12 8.51671e-10 3630.2 -373.955 1.17849e-10 3815.72 -291.505 2.51218e-10 3993.03 -258.722 3.5435e-10 4164.17 -259.008 4.36734e-10 4330.49 -281.482 5.03591e-10 4492.91 -318.725 5.57039e-10 4652.08 -365.51 6.02425e-10 4808.46 -418.058 6.39461e-10 4743.86 -391.341 6.59527e-10 4678.19 -377.736 6.74556e-10 4611.69 -375.237 6.86734e-10 4544.56 -382.263 6.97481e-10 4476.94 -397.556 7.07751e-10 4408.96 -420.094 7.14604e-10 4340.72 -449.044 7.20283e-10 3361.57 -648.025 1.35455e-10 3576.59 -652.196 2.40382e-10 3779.97 -683.695 3.23028e-10 3974.13 -732.682 3.8946e-10 4160.76 -792.464 4.40997e-10 4341.03 -858.342 4.83858e-10 4515.81 -926.935 5.1757e-10 4685.74 -995.76 5.45749e-10 4637.44 -964.862 5.64618e-10 4587.36 -942.733 5.79859e-10 4535.85 -927.904 5.92601e-10 4483.21 -919.202 6.03481e-10 4429.66 -915.683 6.09984e-10 4375.39 -916.574 6.15887e-10 4320.55 -921.24 6.18338e-10 3104.83 -933.995 1.52044e-10 3334.67 -1002.81 2.35184e-10 3551.49 -1084.64 3.00496e-10 3757.56 -1173.56 3.51632e-10 3954.48 -1265.47 3.92209e-10 4143.41 -1357.43 4.23595e-10 4325.23 -1447.32 4.48761e-10 4500.6 -1533.57 4.69378e-10 4462.9 -1501.66 4.9015e-10 4422.99 -1475.2 5.05567e-10 4381.28 -1453.17 5.17378e-10 4338.05 -1434.75 5.26216e-10 4293.58 -1419.27 5.32669e-10 4248.06 -1406.18 5.36897e-10 4201.67 -1395.03 5.39261e-10 2851.06 -1222.93 1.68951e-10 3085.66 -1341.05 2.33139e-10 3306.93 -1462.69 2.83206e-10 3516.75 -1584.4 3.2159e-10 3716.48 -1703.74 3.52104e-10 3907.13 -1818.99 3.76073e-10 4089.51 -1928.88 3.94211e-10 4264.21 -2032.51 4.07823e-10 4232.87 -2001.28 4.29173e-10 4199.17 -1973.01 4.46024e-10 4163.46 -1947.01 4.591e-10 4126.03 -1922.77 4.67761e-10 4087.11 -1899.84 4.74777e-10 4046.91 -1877.87 4.78399e-10 4005.6 -1856.57 4.79915e-10 2595.1 -1509.69 1.86849e-10 2826.85 -1665.76 2.34292e-10 3045.65 -1818.96 2.70925e-10 3252.91 -1967.46 2.98999e-10 3449.66 -2109.99 3.2023e-10 3636.7 -2245.65 3.36765e-10 3814.68 -2373.8 3.48481e-10 3984.09 -2494.02 3.57011e-10 3956.08 -2464.24 3.80454e-10 3925.78 -2435.53 3.98726e-10 3893.48 -2407.51 4.12511e-10 3859.41 -2379.88 4.22675e-10 3823.77 -2352.4 4.29648e-10 3786.74 -2324.88 4.34327e-10 3748.44 -2297.16 4.35966e-10 2334.01 -1791.31 2.06322e-10 2556.45 -1976.48 2.38344e-10 2766.98 -2154.47 2.62642e-10 2966.46 -2324.59 2.80667e-10 3155.52 -2486.38 2.94014e-10 3334.71 -2639.57 3.03345e-10 3504.43 -2783.96 3.09683e-10 3665.06 -2919.49 3.13639e-10 3638.23 -2891.26 3.39606e-10 3609.45 -2862.71 3.59738e-10 3578.92 -2833.7 3.75365e-10 3546.77 -2804.11 3.86952e-10 3513.15 -2773.86 3.95203e-10 3478.16 -2742.89 4.00606e-10 3441.9 -2711.14 4.03423e-10 2066.24 -2066.24 2.28103e-10 2273.25 -2273.25 2.45532e-10 2470.19 -2470.19 2.58042e-10 2657.23 -2657.23 2.66663e-10 2834.55 -2834.55 2.72253e-10 3002.31 -3002.31 2.75552e-10 3160.67 -3160.67 2.76812e-10 3309.81 -3309.81 2.76536e-10 3282.73 -3282.73 3.05603e-10 3254.34 -3254.34 3.28697e-10 3224.69 -3224.69 3.46733e-10 3193.82 -3193.82 3.60447e-10 3161.75 -3161.75 3.70562e-10 3128.53 -3128.53 3.77491e-10 3094.2 -3094.2 3.81843e-10 1791.31 -2334.01 1.85167e-10 1976.48 -2556.45 1.97953e-10 2154.47 -2766.98 2.07053e-10 2324.59 -2966.46 2.13285e-10 2486.38 -3155.52 2.17211e-10 2639.57 -3334.71 2.19522e-10 2783.96 -3504.43 2.20282e-10 2919.49 -3665.06 2.19867e-10 2891.26 -3638.23 2.46612e-10 2862.71 -3609.45 2.68084e-10 2833.7 -3578.92 2.84936e-10 2804.11 -3546.77 2.98171e-10 2773.86 -3513.15 3.08001e-10 2742.89 -3478.16 3.15279e-10 2711.14 -3441.9 3.20066e-10 1509.69 -2595.1 1.43472e-10 1665.76 -2826.85 1.51876e-10 1818.96 -3045.65 1.57368e-10 1967.46 -3252.91 1.61402e-10 2109.99 -3449.66 1.63908e-10 2245.65 -3636.7 1.64933e-10 2373.8 -3814.68 1.65429e-10 2494.02 -3984.09 1.64896e-10 2464.24 -3956.08 1.89299e-10 2435.53 -3925.78 2.09601e-10 2407.51 -3893.48 2.25906e-10 2379.88 -3859.41 2.38216e-10 2352.4 -3823.77 2.48605e-10 2324.88 -3786.74 2.56755e-10 2297.16 -3748.44 2.6175e-10 1222.93 -2851.06 1.01749e-10 1341.05 -3085.66 1.05335e-10 1462.69 -3306.93 1.07606e-10 1584.4 -3516.75 1.09392e-10 1703.74 -3716.48 1.09993e-10 1818.99 -3907.13 1.10135e-10 1928.88 -4089.51 1.09723e-10 2032.51 -4264.21 1.08941e-10 2001.28 -4232.87 1.31792e-10 1973.01 -4199.17 1.50501e-10 1947.01 -4163.46 1.66136e-10 1922.77 -4126.03 1.79481e-10 1899.84 -4087.11 1.89168e-10 1877.87 -4046.91 1.97728e-10 1856.57 -4005.6 2.04507e-10 933.995 -3104.83 5.76384e-11 1002.81 -3334.67 5.65835e-11 1084.64 -3551.49 5.50277e-11 1173.56 -3757.56 5.35523e-11 1265.47 -3954.48 5.29055e-11 1357.43 -4143.41 5.20488e-11 1447.32 -4325.23 5.0655e-11 1533.57 -4500.6 4.93542e-11 1501.66 -4462.9 7.03334e-11 1475.2 -4422.99 8.75021e-11 1453.17 -4381.28 1.02622e-10 1434.75 -4338.05 1.1578e-10 1419.27 -4293.58 1.25893e-10 1406.18 -4248.06 1.34745e-10 1395.03 -4201.67 1.42023e-10 648.025 -3361.57 8.41178e-12 652.196 -3576.59 1.79558e-12 683.695 -3779.97 -3.20084e-12 732.682 -3974.13 -7.63067e-12 792.464 -4160.76 -1.11193e-11 858.342 -4341.03 -1.38265e-11 926.935 -4515.81 -1.73175e-11 995.76 -4685.74 -1.80757e-11 964.862 -4637.44 1.27134e-12 942.733 -4587.36 1.64997e-11 927.904 -4535.85 3.15236e-11 919.202 -4483.21 4.24832e-11 915.683 -4429.66 5.27945e-11 916.574 -4375.39 6.17873e-11 921.24 -4320.55 7.05102e-11 373.955 -3630.2 -4.8886e-11 291.505 -3815.72 -6.16576e-11 258.722 -3993.03 -7.08865e-11 259.008 -4164.17 -7.83581e-11 281.482 -4330.49 -8.52783e-11 318.725 -4492.91 -8.99482e-11 365.51 -4652.08 -9.40812e-11 418.058 -4808.46 -9.61026e-11 391.341 -4743.86 -8.24011e-11 377.736 -4678.19 -6.7949e-11 375.237 -4611.69 -5.51944e-11 382.263 -4544.56 -4.47836e-11 397.556 -4476.94 -3.65217e-11 420.094 -4408.96 -2.75174e-11 449.044 -4340.72 -2.01298e-11 128.036 -3926.99 -1.20963e-10 -74.8614 -4059.22 -1.39624e-10 -191.417 -4191.44 -1.53639e-10 -250.872 -4323.67 -1.64928e-10 -271.334 -4455.89 -1.73173e-10 -264.617 -4588.12 -1.80734e-10 -238.755 -4720.34 -1.88111e-10 -199.405 -4852.57 -1.92415e-10 -216.56 -4764.25 -1.81752e-10 -214.955 -4675.93 -1.70918e-10 -197.235 -4587.61 -1.61368e-10 -165.438 -4499.29 -1.52605e-10 -121.16 -4410.96 -1.47537e-10 -65.6735 -4322.64 -1.41398e-10 0 -4234.32 -1.34705e-10 4045.49 -131.9 8.51514e-10 4181.71 77.1204 8.38337e-10 4317.92 197.193 8.27793e-10 4454.14 258.442 8.19711e-10 4590.35 279.522 8.13401e-10 4726.57 272.602 8.07994e-10 4862.78 245.96 8.02527e-10 4999 205.422 7.98675e-10 4908.01 223.094 8.01389e-10 4817.02 221.442 8.02682e-10 4726.04 203.187 8.04727e-10 4635.05 170.43 8.05862e-10 4544.07 124.816 8.07526e-10 4453.08 67.6553 8.09609e-10 4362.09 -2.74395e-13 8.09793e-10 3739.75 -385.239 6.89849e-10 3930.86 -300.301 6.93436e-10 4113.52 -266.529 6.94891e-10 4289.82 -266.823 6.94163e-10 4461.16 -289.976 6.93894e-10 4628.48 -328.342 6.91284e-10 4792.45 -376.539 6.88589e-10 4953.56 -430.673 6.85091e-10 4887.01 -403.15 6.91946e-10 4819.35 -389.135 6.95258e-10 4750.85 -386.559 6.98823e-10 4681.69 -393.798 6.99281e-10 4612.03 -409.552 7.01067e-10 4542 -432.77 7.01279e-10 4471.71 -462.594 7.00193e-10 3463 -667.579 5.7061e-10 3684.51 -671.876 5.83309e-10 3894.03 -704.325 5.90806e-10 4094.05 -754.791 5.956e-10 4286.31 -816.377 5.97834e-10 4472.03 -884.242 5.97986e-10 4652.08 -954.905 5.97413e-10 4827.13 -1025.81 5.94461e-10 4777.37 -993.977 6.03139e-10 4725.78 -971.18 6.08771e-10 4672.72 -955.903 6.12245e-10 4618.49 -946.939 6.13955e-10 4563.32 -943.314 6.15556e-10 4507.41 -944.232 6.1534e-10 4450.92 -949.038 6.13473e-10 3198.52 -962.178 4.78282e-10 3435.29 -1033.07 4.96651e-10 3658.66 -1117.37 5.0931e-10 3870.94 -1208.97 5.17714e-10 4073.8 -1303.65 5.21885e-10 4268.43 -1398.39 5.23954e-10 4455.74 -1490.99 5.23512e-10 4636.4 -1579.85 5.22463e-10 4597.56 -1546.97 5.33334e-10 4556.46 -1519.71 5.42359e-10 4513.48 -1497.02 5.47369e-10 4468.95 -1478.04 5.50223e-10 4423.14 -1462.09 5.51434e-10 4376.25 -1448.61 5.51105e-10 4328.46 -1437.12 5.49375e-10 2937.09 -1259.83 4.03377e-10 3178.77 -1381.52 4.26609e-10 3406.72 -1506.83 4.42935e-10 3622.87 -1632.21 4.53543e-10 3828.62 -1755.15 4.60585e-10 4025.03 -1873.88 4.64633e-10 4212.91 -1987.08 4.65749e-10 4392.88 -2093.84 4.65225e-10 4360.6 -2061.67 4.79393e-10 4325.88 -2032.54 4.88937e-10 4289.09 -2005.77 4.96387e-10 4250.53 -1980.79 5.00466e-10 4210.44 -1957.16 5.02221e-10 4169.03 -1934.53 5.02308e-10 4126.47 -1912.59 5.00173e-10 2673.41 -1555.24 3.40285e-10 2912.15 -1716.02 3.67238e-10 3137.56 -1873.85 3.86546e-10 3351.06 -2026.83 4.00293e-10 3553.75 -2173.66 4.09314e-10 3746.44 -2313.41 4.14868e-10 3929.79 -2445.43 4.17546e-10 4104.31 -2569.28 4.18252e-10 4075.46 -2538.6 4.3583e-10 4044.24 -2509.03 4.48664e-10 4010.96 -2480.16 4.5782e-10 3975.87 -2451.69 4.63819e-10 3939.16 -2423.38 4.66625e-10 3901 -2395.03 4.6791e-10 3861.55 -2366.48 4.66955e-10 2404.44 -1845.36 2.85377e-10 2633.59 -2036.12 3.15891e-10 2850.47 -2219.48 3.38377e-10 3055.97 -2394.73 3.54685e-10 3250.74 -2561.41 3.66205e-10 3435.33 -2719.22 3.73602e-10 3610.18 -2867.97 3.78425e-10 3775.65 -3007.58 3.80139e-10 3748.01 -2978.5 4.01546e-10 3718.37 -2949.1 4.17537e-10 3686.91 -2919.21 4.29213e-10 3653.8 -2888.73 4.37349e-10 3619.16 -2857.56 4.42437e-10 3583.11 -2825.66 4.4482e-10 3545.75 -2792.95 4.44857e-10 2128.59 -2128.59 2.35729e-10 2341.84 -2341.84 2.70001e-10 2544.72 -2544.72 2.95796e-10 2737.41 -2737.41 3.15039e-10 2920.08 -2920.08 3.28996e-10 3092.9 -3092.9 3.38767e-10 3256.05 -3256.05 3.45208e-10 3409.69 -3409.69 3.48881e-10 3381.78 -3381.78 3.74466e-10 3352.54 -3352.54 3.9425e-10 3322 -3322 4.0918e-10 3290.19 -3290.19 4.19971e-10 3257.16 -3257.16 4.27335e-10 3222.94 -3222.94 4.31689e-10 3187.57 -3187.57 4.33539e-10 1845.36 -2404.44 1.8611e-10 2036.12 -2633.59 2.17241e-10 2219.48 -2850.47 2.41008e-10 2394.73 -3055.97 2.58767e-10 2561.41 -3250.74 2.7191e-10 2719.22 -3435.33 2.81431e-10 2867.97 -3610.18 2.87991e-10 3007.58 -3775.65 2.92015e-10 2978.5 -3748.01 3.13974e-10 2949.1 -3718.37 3.31464e-10 2919.21 -3686.91 3.44739e-10 2888.73 -3653.8 3.54354e-10 2857.56 -3619.16 3.61334e-10 2825.66 -3583.11 3.6557e-10 2792.95 -3545.75 3.67519e-10 1555.24 -2673.41 1.37774e-10 1716.02 -2912.15 1.65973e-10 1873.85 -3137.56 1.87887e-10 2026.83 -3351.06 2.04352e-10 2173.66 -3553.75 2.17099e-10 2313.41 -3746.44 2.26193e-10 2445.43 -3929.79 2.33126e-10 2569.28 -4104.31 2.37178e-10 2538.6 -4075.46 2.56806e-10 2509.03 -4044.24 2.72169e-10 2480.16 -4010.96 2.8372e-10 2451.69 -3975.87 2.92543e-10 2423.38 -3939.16 2.98876e-10 2395.03 -3901 3.03769e-10 2366.48 -3861.55 3.06008e-10 1259.83 -2937.09 8.85336e-11 1381.52 -3178.77 1.1427e-10 1506.83 -3406.72 1.34031e-10 1632.21 -3622.87 1.50049e-10 1755.15 -3828.62 1.62026e-10 1873.88 -4025.03 1.71322e-10 1987.08 -4212.91 1.78347e-10 2093.84 -4392.88 1.83267e-10 2061.67 -4360.6 1.99698e-10 2032.54 -4325.88 2.13588e-10 2005.77 -4289.09 2.23653e-10 1980.79 -4250.53 2.32015e-10 1957.16 -4210.44 2.38415e-10 1934.53 -4169.03 2.42895e-10 1912.59 -4126.47 2.46537e-10 962.178 -3198.52 3.64403e-11 1033.07 -3435.29 6.01999e-11 1117.37 -3658.66 7.8485e-11 1208.97 -3870.94 9.3308e-11 1303.65 -4073.8 1.0531e-10 1398.39 -4268.43 1.14572e-10 1490.99 -4455.74 1.21904e-10 1579.85 -4636.4 1.28119e-10 1546.97 -4597.56 1.41081e-10 1519.71 -4556.46 1.50901e-10 1497.02 -4513.48 1.60034e-10 1478.04 -4468.95 1.6712e-10 1462.09 -4423.14 1.72848e-10 1448.61 -4376.25 1.77914e-10 1437.12 -4328.46 1.80783e-10 667.579 -3463 -2.25537e-11 671.876 -3684.51 -6.91003e-13 704.325 -3894.03 1.63283e-11 754.791 -4094.05 3.0759e-11 816.377 -4286.31 4.14089e-11 884.242 -4472.03 5.06185e-11 954.905 -4652.08 5.81024e-11 1025.81 -4827.13 6.47635e-11 993.977 -4777.37 7.43439e-11 971.18 -4725.78 8.25332e-11 955.903 -4672.72 8.90723e-11 946.939 -4618.49 9.45601e-11 943.314 -4563.32 9.98386e-11 944.232 -4507.41 1.03612e-10 949.038 -4450.92 1.07366e-10 385.239 -3739.75 -9.19158e-11 300.301 -3930.86 -7.17577e-11 266.529 -4113.52 -5.56699e-11 266.823 -4289.82 -4.21055e-11 289.976 -4461.16 -3.19861e-11 328.342 -4628.48 -2.25495e-11 376.539 -4792.45 -1.56117e-11 430.673 -4953.56 -8.5952e-12 403.15 -4887.01 -4.36566e-12 389.135 -4819.35 3.45929e-13 386.559 -4750.85 2.96351e-12 393.798 -4681.69 7.31873e-12 409.552 -4612.03 9.15174e-12 432.77 -4542 1.19981e-11 462.594 -4471.71 1.46302e-11 131.9 -4045.49 -1.79512e-10 -77.1204 -4181.71 -1.58379e-10 -197.193 -4317.92 -1.41516e-10 -258.442 -4454.14 -1.28744e-10 -279.522 -4590.35 -1.18519e-10 -272.602 -4726.57 -1.09722e-10 -245.96 -4862.78 -1.01427e-10 -205.422 -4999 -9.53797e-11 -223.094 -4908.01 -9.73337e-11 -221.442 -4817.02 -9.8273e-11 -203.187 -4726.04 -9.98828e-11 -170.43 -4635.05 -1.00599e-10 -124.816 -4544.07 -1.01744e-10 -67.6553 -4453.08 -1.03528e-10 -8.23184e-13 -4362.09 -1.0347e-10 4126.63 -134.545 1.75817e-09 4265.58 78.6672 1.51386e-09 4404.53 201.148 1.3268e-09 4543.47 263.626 1.17927e-09 4682.42 285.128 1.06034e-09 4821.37 278.069 9.60569e-10 4960.32 250.893 8.77031e-10 5099.26 209.543 8.07503e-10 5006.45 227.569 7.92997e-10 4913.64 225.883 7.79695e-10 4820.83 207.262 7.68028e-10 4728.02 173.848 7.59833e-10 4635.21 127.32 7.51801e-10 4542.4 69.0122 7.43471e-10 4449.59 -8.39695e-13 7.37047e-10 3814.75 -392.966 1.3694e-09 4009.7 -306.324 1.20776e-09 4196.02 -271.875 1.08061e-09 4375.86 -272.175 9.76106e-10 4550.64 -295.792 8.90016e-10 4721.32 -334.928 8.16229e-10 4888.58 -384.092 7.55238e-10 5052.91 -439.311 6.9991e-10 4985.03 -411.236 6.93783e-10 4916.02 -396.94 6.8583e-10 4846.14 -394.313 6.78011e-10 4775.59 -401.697 6.69306e-10 4704.54 -417.766 6.62889e-10 4633.1 -441.45 6.5596e-10 4561.4 -471.872 6.49287e-10 3532.46 -680.969 1.07876e-09 3758.41 -685.352 9.73692e-10 3972.13 -718.452 8.87696e-10 4176.17 -769.93 8.16212e-10 4372.29 -832.751 7.54864e-10 4561.72 -901.978 7.0324e-10 4745.39 -974.058 6.57745e-10 4923.95 -1046.38 6.17556e-10 4873.2 -1013.91 6.15241e-10 4820.57 -990.659 6.11398e-10 4766.44 -975.076 6.06606e-10 4711.13 -965.932 6.02018e-10 4654.85 -962.234 5.96777e-10 4597.82 -963.171 5.9053e-10 4540.19 -968.073 5.83341e-10 3262.67 -981.477 8.48558e-10 3504.19 -1053.79 7.85529e-10 3732.04 -1139.78 7.32767e-10 3948.58 -1233.22 6.873e-10 4155.51 -1329.8 6.46964e-10 4354.05 -1426.44 6.10743e-10 4545.11 -1520.9 5.80399e-10 4729.4 -1611.54 5.51628e-10 4689.78 -1578 5.53744e-10 4647.85 -1550.19 5.53531e-10 4604.01 -1527.04 5.51411e-10 4558.59 -1507.69 5.49532e-10 4511.85 -1491.42 5.44331e-10 4464.02 -1477.66 5.39604e-10 4415.28 -1465.95 5.33519e-10 2996 -1285.1 6.56917e-10 3242.53 -1409.23 6.28673e-10 3475.05 -1537.05 6.03009e-10 3695.53 -1664.95 5.79351e-10 3905.41 -1790.36 5.57433e-10 4105.76 -1911.46 5.37429e-10 4297.41 -2026.94 5.18153e-10 4480.99 -2135.84 4.99826e-10 4448.06 -2103.02 5.06127e-10 4412.65 -2073.31 5.09805e-10 4375.12 -2046 5.10672e-10 4335.78 -2020.52 5.09726e-10 4294.89 -1996.42 5.07129e-10 4252.65 -1973.33 5.03132e-10 4209.23 -1950.95 4.9776e-10 2727.03 -1586.44 4.90283e-10 2970.56 -1750.44 4.91923e-10 3200.49 -1911.43 4.90895e-10 3418.28 -2067.49 4.87189e-10 3625.03 -2217.26 4.81996e-10 3821.59 -2359.81 4.75266e-10 4008.61 -2494.48 4.67292e-10 4186.64 -2620.81 4.5913e-10 4157.2 -2589.52 4.69972e-10 4125.36 -2559.35 4.7678e-10 4091.41 -2529.9 4.80636e-10 4055.61 -2500.87 4.82264e-10 4018.17 -2471.99 4.81419e-10 3979.25 -2443.07 4.78803e-10 3939 -2413.94 4.74659e-10 2452.67 -1882.37 3.39456e-10 2686.41 -2076.96 3.69235e-10 2907.65 -2264 3.90821e-10 3117.26 -2442.77 4.06355e-10 3315.94 -2612.79 4.16647e-10 3504.23 -2773.76 4.22838e-10 3682.59 -2925.49 4.26487e-10 3851.38 -3067.91 4.26946e-10 3823.18 -3038.25 4.4246e-10 3792.95 -3008.25 4.53612e-10 3760.86 -2977.76 4.61078e-10 3727.08 -2946.67 4.6532e-10 3691.75 -2914.88 4.66593e-10 3654.98 -2882.33 4.66161e-10 3616.87 -2848.97 4.63537e-10 2171.28 -2171.28 1.97266e-10 2388.81 -2388.81 2.54384e-10 2595.77 -2595.77 2.98513e-10 2792.32 -2792.32 3.32532e-10 2978.65 -2978.65 3.58463e-10 3154.94 -3154.94 3.77964e-10 3321.35 -3321.35 3.9218e-10 3478.08 -3478.08 4.02134e-10 3449.61 -3449.61 4.22916e-10 3419.78 -3419.78 4.38501e-10 3388.63 -3388.63 4.49628e-10 3356.18 -3356.18 4.57058e-10 3322.49 -3322.49 4.61341e-10 3287.58 -3287.58 4.62921e-10 3251.5 -3251.5 4.62271e-10 1882.37 -2452.67 1.56098e-10 2076.96 -2686.41 2.08843e-10 2264 -2907.65 2.49765e-10 2442.77 -3117.26 2.81454e-10 2612.79 -3315.94 3.05741e-10 2773.76 -3504.23 3.24457e-10 2925.49 -3682.59 3.38105e-10 3067.91 -3851.38 3.4814e-10 3038.25 -3823.18 3.65159e-10 3008.25 -3792.95 3.78001e-10 2977.76 -3760.86 3.87218e-10 2946.67 -3727.08 3.93084e-10 2914.88 -3691.75 3.96676e-10 2882.33 -3654.98 3.9815e-10 2848.97 -3616.87 3.97295e-10 1586.44 -2727.03 1.16021e-10 1750.44 -2970.56 1.65088e-10 1911.43 -3200.49 2.02838e-10 2067.49 -3418.28 2.32895e-10 2217.26 -3625.03 2.55934e-10 2359.81 -3821.59 2.74082e-10 2494.48 -4008.61 2.8763e-10 2620.81 -4186.64 2.97345e-10 2589.52 -4157.2 3.11358e-10 2559.35 -4125.36 3.21769e-10 2529.9 -4091.41 3.29287e-10 2500.87 -4055.61 3.34233e-10 2471.99 -4018.17 3.37419e-10 2443.07 -3979.25 3.3912e-10 2413.94 -3939 3.3869e-10 1285.1 -2996 7.54312e-11 1409.23 -3242.53 1.20888e-10 1537.05 -3475.05 1.56594e-10 1664.95 -3695.53 1.84978e-10 1790.36 -3905.41 2.07127e-10 1911.46 -4105.76 2.2453e-10 2026.94 -4297.41 2.38371e-10 2135.84 -4480.99 2.49069e-10 2103.02 -4448.06 2.59778e-10 2073.31 -4412.65 2.67021e-10 2046 -4375.12 2.73523e-10 2020.52 -4335.78 2.7801e-10 1996.42 -4294.89 2.80894e-10 1973.33 -4252.65 2.81876e-10 1950.95 -4209.23 2.82352e-10 981.477 -3262.67 3.21674e-11 1053.79 -3504.19 7.529e-11 1139.78 -3732.04 1.0845e-10 1233.22 -3948.58 1.35444e-10 1329.8 -4155.51 1.5684e-10 1426.44 -4354.05 1.74634e-10 1520.9 -4545.11 1.88317e-10 1611.54 -4729.4 1.99112e-10 1578 -4689.78 2.0569e-10 1550.19 -4647.85 2.10963e-10 1527.04 -4604.01 2.15743e-10 1507.69 -4558.59 2.17356e-10 1491.42 -4511.85 2.18277e-10 1477.66 -4464.02 2.20938e-10 1465.95 -4415.28 2.20948e-10 680.969 -3532.46 -1.63509e-11 685.352 -3758.41 2.39923e-11 718.452 -3972.13 5.59837e-11 769.93 -4176.17 8.12493e-11 832.751 -4372.29 1.01652e-10 901.978 -4561.72 1.18611e-10 974.058 -4745.39 1.32677e-10 1046.38 -4923.95 1.44117e-10 1013.91 -4873.2 1.4645e-10 990.659 -4820.57 1.48788e-10 975.076 -4766.44 1.49826e-10 965.932 -4711.13 1.50201e-10 962.234 -4654.85 1.51012e-10 963.171 -4597.82 1.51471e-10 968.073 -4540.19 1.52138e-10 392.966 -3814.75 -7.33201e-11 306.324 -4009.7 -3.49672e-11 271.875 -4196.02 -4.28589e-12 272.175 -4375.86 1.99786e-11 295.792 -4550.64 3.99663e-11 334.928 -4721.32 5.68103e-11 384.092 -4888.58 6.969e-11 439.311 -5052.91 8.2207e-11 411.236 -4985.03 7.9572e-11 396.94 -4916.02 7.62907e-11 394.313 -4846.14 7.34269e-11 401.697 -4775.59 7.28771e-11 417.766 -4704.54 6.96761e-11 441.45 -4633.1 6.86175e-11 471.872 -4561.4 6.69383e-11 134.545 -4126.63 -1.45747e-10 -78.6672 -4265.58 -1.06779e-10 -201.148 -4404.53 -7.65397e-11 -263.626 -4543.47 -5.29852e-11 -285.128 -4682.42 -3.4306e-11 -278.069 -4821.37 -1.73945e-11 -250.893 -4960.32 -3.40462e-12 -209.543 -5099.26 6.82121e-12 -227.569 -5006.45 -3.10769e-12 -225.883 -4913.64 -1.10207e-11 -207.262 -4820.83 -1.7997e-11 -173.848 -4728.02 -2.64461e-11 -127.32 -4635.21 -3.31017e-11 -69.0122 -4542.4 -3.80155e-11 -2.79898e-13 -4449.59 -4.35577e-11 4168.87 -135.922 1.0215e-09 4309.24 79.4724 9.23089e-10 4449.61 203.207 8.47683e-10 4589.97 266.324 7.88112e-10 4730.34 288.046 7.39671e-10 4870.71 280.915 7.00105e-10 5011.08 253.461 6.65922e-10 5151.45 211.687 6.36264e-10 5057.69 229.898 6.39625e-10 4963.93 228.195 6.42468e-10 4870.17 209.384 6.44389e-10 4776.41 175.627 6.4667e-10 4682.65 128.623 6.49364e-10 4588.89 69.7186 6.49917e-10 4495.13 -1.13105e-12 6.50562e-10 3853.8 -396.988 8.13541e-10 4050.74 -309.459 7.57213e-10 4238.97 -274.657 7.1206e-10 4420.65 -274.961 6.7437e-10 4597.22 -298.819 6.43014e-10 4769.64 -338.356 6.15225e-10 4938.61 -388.023 5.91642e-10 5104.63 -443.807 5.69757e-10 5036.05 -415.445 5.78169e-10 4966.33 -401.002 5.81412e-10 4895.74 -398.348 5.85165e-10 4824.47 -405.808 5.87874e-10 4752.68 -422.042 5.89127e-10 4680.52 -445.968 5.89041e-10 4608.08 -476.701 5.89092e-10 3568.61 -687.938 6.59262e-10 3796.88 -692.366 6.31215e-10 4012.78 -725.805 6.06913e-10 4218.91 -777.81 5.85569e-10 4417.04 -841.274 5.66586e-10 4608.41 -911.209 5.49819e-10 4793.95 -984.027 5.34163e-10 4974.35 -1057.09 5.19018e-10 4923.07 -1024.29 5.27774e-10 4869.9 -1000.8 5.34509e-10 4815.23 -985.056 5.39293e-10 4759.34 -975.818 5.41754e-10 4702.49 -972.083 5.43518e-10 4644.88 -973.029 5.44128e-10 4586.66 -977.981 5.43161e-10 3296.06 -991.522 5.37921e-10 3540.06 -1064.58 5.31155e-10 3770.24 -1151.44 5.23845e-10 3989 -1245.84 5.15582e-10 4198.04 -1343.41 5.07336e-10 4398.61 -1441.04 4.97619e-10 4591.63 -1536.47 4.88615e-10 4777.8 -1628.03 4.79406e-10 4737.78 -1594.15 4.9094e-10 4695.42 -1566.06 4.98989e-10 4651.13 -1542.67 5.04867e-10 4605.24 -1523.12 5.08936e-10 4558.03 -1506.68 5.10045e-10 4509.71 -1492.79 5.09689e-10 4460.47 -1480.95 5.08626e-10 3026.66 -1298.26 4.38406e-10 3275.72 -1423.65 4.49415e-10 3510.62 -1552.79 4.56116e-10 3733.35 -1681.99 4.59526e-10 3945.38 -1808.68 4.59884e-10 4147.79 -1931.02 4.58253e-10 4341.39 -2047.68 4.55126e-10 4526.85 -2157.69 4.51426e-10 4493.59 -2124.55 4.6505e-10 4457.81 -2094.53 4.75211e-10 4419.9 -2066.94 4.81448e-10 4380.16 -2041.2 4.85436e-10 4338.85 -2016.85 4.8757e-10 4296.17 -1993.53 4.87784e-10 4252.31 -1970.92 4.86059e-10 2754.94 -1602.67 3.53209e-10 3000.97 -1768.36 3.79837e-10 3233.24 -1931 3.99268e-10 3453.26 -2088.65 4.12476e-10 3662.13 -2239.95 4.2145e-10 3860.7 -2383.96 4.2663e-10 4049.64 -2520.01 4.2915e-10 4229.48 -2647.63 4.2956e-10 4199.75 -2616.02 4.46117e-10 4167.58 -2585.54 4.57751e-10 4133.29 -2555.8 4.66786e-10 4097.12 -2526.46 4.71845e-10 4059.29 -2497.29 4.74692e-10 4019.97 -2468.07 4.74906e-10 3979.32 -2438.65 4.73545e-10 2477.77 -1901.64 2.77348e-10 2713.91 -2098.22 3.18831e-10 2937.41 -2287.17 3.50146e-10 3149.17 -2467.77 3.73497e-10 3349.88 -2639.53 3.90755e-10 3540.1 -2802.14 4.02613e-10 3720.28 -2955.44 4.10754e-10 3890.8 -3099.31 4.1545e-10 3862.31 -3069.34 4.35351e-10 3831.77 -3039.04 4.50084e-10 3799.35 -3008.24 4.60622e-10 3765.23 -2976.83 4.67631e-10 3729.53 -2944.71 4.71503e-10 3692.39 -2911.83 4.72501e-10 3653.89 -2878.13 4.7163e-10 2193.51 -2193.51 2.07284e-10 2413.26 -2413.26 2.63675e-10 2622.33 -2622.33 3.07133e-10 2820.9 -2820.9 3.4055e-10 3009.14 -3009.14 3.66001e-10 3187.23 -3187.23 3.8501e-10 3355.35 -3355.35 3.98838e-10 3513.67 -3513.67 4.08394e-10 3484.92 -3484.92 4.32025e-10 3454.78 -3454.78 4.49903e-10 3423.31 -3423.31 4.62951e-10 3390.53 -3390.53 4.71937e-10 3356.49 -3356.49 4.77469e-10 3321.23 -3321.23 4.80096e-10 3284.78 -3284.78 4.80221e-10 1901.64 -2477.77 1.73812e-10 2098.22 -2713.91 2.24309e-10 2287.17 -2937.41 2.6343e-10 2467.77 -3149.17 2.93541e-10 2639.53 -3349.88 3.1658e-10 2802.14 -3540.1 3.33959e-10 2955.44 -3720.28 3.46718e-10 3099.31 -3890.8 3.55724e-10 3069.34 -3862.31 3.76249e-10 3039.04 -3831.77 3.91958e-10 3008.24 -3799.35 4.03398e-10 2976.83 -3765.23 4.11252e-10 2944.71 -3729.53 4.16543e-10 2911.83 -3692.39 4.19275e-10 2878.13 -3653.89 4.19418e-10 1602.67 -2754.94 1.41961e-10 1768.36 -3000.97 1.87205e-10 1931 -3233.24 2.21971e-10 2088.65 -3453.26 2.49202e-10 2239.95 -3662.13 2.70356e-10 2383.96 -3860.7 2.86408e-10 2520.01 -4049.64 2.98207e-10 2647.63 -4229.48 3.06906e-10 2616.02 -4199.75 3.24986e-10 2585.54 -4167.58 3.38737e-10 2555.8 -4133.29 3.49176e-10 2526.46 -4097.12 3.56478e-10 2497.29 -4059.29 3.61261e-10 2468.07 -4019.97 3.64262e-10 2438.65 -3979.32 3.65399e-10 1298.26 -3026.66 1.10361e-10 1423.65 -3275.72 1.50448e-10 1552.79 -3510.62 1.81501e-10 1681.99 -3733.35 2.05597e-10 1808.68 -3945.38 2.24821e-10 1931.02 -4147.79 2.40037e-10 2047.68 -4341.39 2.5102e-10 2157.69 -4526.85 2.59391e-10 2124.55 -4493.59 2.7516e-10 2094.53 -4457.81 2.87201e-10 2066.94 -4419.9 2.96775e-10 2041.2 -4380.16 3.03977e-10 2016.85 -4338.85 3.08724e-10 1993.53 -4296.17 3.1118e-10 1970.92 -4252.31 3.13694e-10 991.522 -3296.06 7.76157e-11 1064.58 -3540.06 1.12971e-10 1151.44 -3770.24 1.40322e-10 1245.84 -3989 1.62288e-10 1343.41 -4198.04 1.78743e-10 1441.04 -4398.61 1.93098e-10 1536.47 -4591.63 2.03903e-10 1628.03 -4777.8 2.12748e-10 1594.15 -4737.78 2.24858e-10 1566.06 -4695.42 2.35352e-10 1542.67 -4651.13 2.43342e-10 1523.12 -4605.24 2.4918e-10 1506.68 -4558.03 2.54583e-10 1492.79 -4509.71 2.59177e-10 1480.95 -4460.47 2.61338e-10 687.938 -3568.61 4.19044e-11 692.366 -3796.88 7.19801e-11 725.805 -4012.78 9.61962e-11 777.81 -4218.91 1.14431e-10 841.274 -4417.04 1.29437e-10 911.209 -4608.41 1.41558e-10 984.027 -4793.95 1.51919e-10 1057.09 -4974.35 1.59496e-10 1024.29 -4923.07 1.7044e-10 1000.8 -4869.9 1.77792e-10 985.056 -4815.23 1.84096e-10 975.818 -4759.34 1.893e-10 972.083 -4702.49 1.94127e-10 973.029 -4644.88 1.97304e-10 977.981 -4586.66 2.00377e-10 396.988 -3853.8 7.7364e-13 309.459 -4050.74 2.56003e-11 274.657 -4238.97 4.52756e-11 274.961 -4420.65 6.06447e-11 298.819 -4597.22 7.351e-11 338.356 -4769.64 8.41261e-11 388.023 -4938.61 9.29436e-11 443.807 -5104.63 1.0068e-10 415.445 -5036.05 1.07115e-10 401.002 -4966.33 1.10974e-10 398.348 -4895.74 1.16387e-10 405.808 -4824.47 1.20321e-10 422.042 -4752.68 1.22996e-10 445.968 -4680.52 1.25784e-10 476.701 -4608.08 1.28229e-10 135.922 -4168.87 -5.00364e-11 -79.4724 -4309.24 -2.98983e-11 -203.207 -4449.61 -1.38937e-11 -266.324 -4589.97 -1.44934e-12 -288.046 -4730.34 8.77011e-12 -280.915 -4870.71 1.68355e-11 -253.461 -5011.08 2.45377e-11 -211.687 -5151.45 3.162e-11 -229.898 -5057.69 3.16787e-11 -228.195 -4963.93 3.17508e-11 -209.384 -4870.17 3.25331e-11 -175.627 -4776.41 3.25056e-11 -128.623 -4682.65 3.18456e-11 -69.7186 -4588.89 3.30498e-11 -2.82763e-13 -4495.13 3.41753e-11 4137.61 -134.904 4.57931e-10 4276.93 78.8766 4.61288e-10 4416.25 201.684 4.63419e-10 4555.56 264.327 4.65082e-10 4694.88 285.887 4.66406e-10 4834.2 278.809 4.6794e-10 4973.52 251.561 4.67793e-10 5112.83 210.1 4.68592e-10 5019.77 228.175 4.85162e-10 4926.72 226.484 4.98695e-10 4833.66 207.814 5.11461e-10 4740.6 174.311 5.22036e-10 4647.54 127.659 5.30874e-10 4554.48 69.1959 5.41277e-10 4461.43 -1.12257e-12 5.48312e-10 3824.91 -394.012 3.86533e-10 4020.37 -307.139 4.02348e-10 4207.19 -272.598 4.14151e-10 4387.51 -272.9 4.226e-10 4562.75 -296.579 4.29885e-10 4733.88 -335.819 4.33902e-10 4901.59 -385.114 4.37101e-10 5066.36 -440.48 4.39207e-10 4998.29 -412.331 4.5569e-10 4929.1 -397.996 4.7122e-10 4859.03 -395.362 4.81861e-10 4788.3 -402.766 4.92184e-10 4717.05 -418.878 4.99558e-10 4645.43 -442.625 5.06865e-10 4573.53 -473.128 5.1241e-10 3541.86 -682.781 3.35291e-10 3768.42 -687.176 3.60081e-10 3982.7 -720.364 3.77917e-10 4187.28 -771.979 3.92147e-10 4383.92 -834.967 4.01397e-10 4573.86 -904.378 4.08782e-10 4758.01 -976.65 4.13384e-10 4937.06 -1049.17 4.16755e-10 4886.16 -1016.61 4.33921e-10 4833.4 -993.296 4.4905e-10 4779.13 -977.671 4.61675e-10 4723.66 -968.503 4.69521e-10 4667.24 -964.795 4.77645e-10 4610.06 -965.734 4.80784e-10 4552.28 -970.649 4.84496e-10 3271.35 -984.089 2.96497e-10 3513.52 -1056.6 3.27763e-10 3741.97 -1142.81 3.51304e-10 3959.09 -1236.5 3.68668e-10 4166.57 -1333.34 3.81411e-10 4365.63 -1430.24 3.9088e-10 4557.2 -1524.95 3.9698e-10 4741.98 -1615.82 4.01039e-10 4702.26 -1582.2 4.20382e-10 4660.22 -1554.32 4.34518e-10 4616.26 -1531.11 4.46087e-10 4570.72 -1511.7 4.54513e-10 4523.86 -1495.39 4.59553e-10 4475.9 -1481.6 4.64036e-10 4427.03 -1469.85 4.66741e-10 3003.97 -1288.52 2.66732e-10 3251.16 -1412.98 3.03639e-10 3484.3 -1541.14 3.31539e-10 3705.37 -1669.38 3.53066e-10 3915.8 -1795.12 3.68539e-10 4116.69 -1916.55 3.79669e-10 4308.85 -2032.33 3.87101e-10 4492.91 -2141.52 3.92193e-10 4459.9 -2108.62 4.12025e-10 4424.39 -2078.83 4.27438e-10 4386.76 -2051.44 4.38638e-10 4347.32 -2025.89 4.46319e-10 4306.32 -2001.73 4.52109e-10 4263.96 -1978.58 4.56219e-10 4220.44 -1956.15 4.56813e-10 2734.29 -1590.66 2.42724e-10 2978.47 -1755.1 2.85272e-10 3209 -1916.52 3.17636e-10 3427.37 -2072.99 3.42563e-10 3634.67 -2223.16 3.60587e-10 3831.76 -2366.09 3.74018e-10 4019.28 -2501.12 3.83226e-10 4197.78 -2627.78 3.89615e-10 4168.26 -2596.41 4.10342e-10 4136.34 -2566.16 4.26089e-10 4102.3 -2536.64 4.38715e-10 4066.41 -2507.52 4.46903e-10 4028.86 -2478.57 4.52042e-10 3989.84 -2449.57 4.54349e-10 3949.48 -2420.37 4.54847e-10 2459.2 -1887.38 2.2346e-10 2693.56 -2082.49 2.71678e-10 2915.39 -2270.03 3.08586e-10 3125.56 -2449.27 3.36736e-10 3324.77 -2619.74 3.57995e-10 3513.56 -2781.14 3.73522e-10 3692.39 -2933.28 3.8459e-10 3861.63 -3076.07 3.91839e-10 3833.36 -3046.33 4.15039e-10 3803.04 -3016.25 4.32191e-10 3770.87 -2985.68 4.44957e-10 3737 -2954.51 4.53842e-10 3701.57 -2922.64 4.59684e-10 3664.7 -2890 4.62116e-10 3626.5 -2856.55 4.62522e-10 2177.06 -2177.06 2.07757e-10 2395.17 -2395.17 2.61892e-10 2602.67 -2602.67 3.0362e-10 2799.75 -2799.75 3.35623e-10 2986.58 -2986.58 3.59936e-10 3163.33 -3163.33 3.78057e-10 3330.19 -3330.19 3.91192e-10 3487.33 -3487.33 4.002e-10 3458.79 -3458.79 4.25554e-10 3428.88 -3428.88 4.44909e-10 3397.64 -3397.64 4.59244e-10 3365.11 -3365.11 4.69305e-10 3331.33 -3331.33 4.75807e-10 3296.33 -3296.33 4.7923e-10 3260.16 -3260.16 4.80086e-10 1887.38 -2459.2 1.81577e-10 2082.49 -2693.56 2.29386e-10 2270.03 -2915.39 2.66347e-10 2449.27 -3125.56 2.94522e-10 2619.74 -3324.77 3.16237e-10 2781.14 -3513.56 3.32393e-10 2933.28 -3692.39 3.4411e-10 3076.07 -3861.63 3.52264e-10 3046.33 -3833.36 3.74778e-10 3016.25 -3803.04 3.92214e-10 2985.68 -3770.87 4.05385e-10 2954.51 -3737 4.14592e-10 2922.64 -3701.57 4.20759e-10 2890 -3664.7 4.24397e-10 2856.55 -3626.5 4.2529e-10 1590.