<?xml version="1.0"?> 
<VTKFile type="StructuredGrid" version="0.1"> 
<StructuredGrid WholeExtent="0 29 0 29 0 29"> 
<Piece Extent="0 29 0 29 0 29"> 
<PointData>
<DataArray type="Float32" Name="hfield" format="ascii" NumberOfComponents="3"> 
354.573 -13.9708 1.41206 359.231 -2.74849 1.15811 364.06 6.03938 0.935775 369.067 12.8488 0.739498 374.259 18.0323 0.564951 379.644 21.8664 0.408714 385.232 24.5703 0.268051 391.032 26.32 0.140744 397.054 27.2576 0.0249752 403.309 27.4992 -0.0807546 409.808 27.1398 -0.177697 416.564 26.2581 -0.266905 423.591 24.919 -0.349267 430.903 23.1766 -0.425543 438.517 21.0761 -0.496383 441.369 20.3163 -0.530236 439.361 20.8817 -0.530793 437.54 21.1142 -0.531314 435.907 21.0276 -0.531802 434.464 20.6324 -0.532261 433.215 19.9365 -0.532693 432.164 18.9448 -0.5331 431.315 17.6603 -0.533485 430.674 16.0831 -0.533849 430.247 14.2117 -0.534193 430.042 12.0418 -0.53452 430.067 9.56731 -0.534831 430.333 6.77957 -0.535127 430.85 3.66766 -0.535408 431.631 0.218077 -0.535677 340.588 -23.4755 1.23098 346.647 -15.4967 1.01307 352.745 -9.38977 0.820856 358.91 -4.81842 0.650134 365.169 -1.51825 0.497563 371.542 0.720927 0.360464 378.052 2.06795 0.236657 384.716 2.6596 0.124355 391.555 2.60755 0.0220787 398.585 2.00356 -0.0714109 405.825 0.923434 -0.157155 413.294 -0.569932 -0.236038 421.009 -2.42417 -0.308812 428.99 -4.59561 -0.376127 437.258 -7.04775 -0.438542 440.657 -7.87115 -0.468186 439.107 -7.10333 -0.468368 437.757 -6.6277 -0.468476 436.612 -6.4317 -0.468518 435.677 -6.50544 -0.468499 434.958 -6.84146 -0.468424 434.46 -7.43458 -0.468299 434.193 -8.28168 -0.468127 434.164 -9.38171 -0.467912 434.383 -10.7355 -0.467658 434.862 -12.346 -0.467367 435.613 -14.218 -0.467043 436.651 -16.3583 -0.466687 437.991 -18.7759 -0.466303 439.651 -21.482 -0.465892 327.605 -33.9824 1.07617 334.707 -28.6888 0.887994 341.761 -24.8405 0.721038 348.81 -22.1854 0.572042 355.887 -20.5229 0.43838 363.024 -19.6917 0.317911 370.248 -19.5611 0.208875 377.585 -20.0243 0.109814 385.058 -20.9938 0.0195029 392.691 -22.397 -0.0630877 400.505 -24.1739 -0.138833 408.524 -26.2746 -0.208483 416.768 -28.6575 -0.272678 425.262 -31.2877 -0.331977 434.028 -34.1365 -0.386862 437.854 -35.0852 -0.412757 436.676 -34.1887 -0.412627 435.709 -33.552 -0.412399 434.962 -33.1641 -0.412083 434.44 -33.0159 -0.411687 434.153 -33.1006 -0.411217 434.109 -33.4135 -0.410681 434.318 -33.9516 -0.410082 434.792 -34.7136 -0.409428 435.544 -35.7002 -0.408721 436.588 -36.9136 -0.407967 437.941 -38.3579 -0.407168 439.621 -40.0391 -0.406328 441.648 -41.9651 -0.405451 444.047 -44.1459 -0.404539 315.323 -45.1898 0.941566 323.2 -42.149 0.778488 330.973 -40.2235 0.633142 338.691 -39.2222 0.502951 346.392 -38.9919 0.385811 354.111 -39.4083 0.279993 361.881 -40.37 0.184056 369.731 -41.7939 0.0967958 377.687 -43.6116 0.0171934 385.776 -45.7662 -0.0556165 394.024 -48.2107 -0.122374 402.454 -50.9061 -0.183718 411.092 -53.8199 -0.240197 419.963 -56.9253 -0.292293 429.092 -60.2 -0.340423 433.24 -61.3191 -0.362974 432.357 -60.3508 -0.362595 431.697 -59.6174 -0.362106 431.266 -59.1091 -0.361517 431.074 -58.8183 -0.360837 431.132 -58.7392 -0.360074 431.45 -58.8675 -0.359235 432.042 -59.201 -0.358326 432.92 -59.7387 -0.357353 434.101 -60.4814 -0.356321 435.602 -61.4315 -0.355236 437.443 -62.593 -0.354102 439.646 -63.9717 -0.352921 442.236 -65.5753 -0.351699 445.242 -67.4135 -0.350438 303.524 -56.8806 0.822736 311.972 -55.7499 0.681292 320.28 -55.4747 0.554775 328.497 -55.9097 0.441119 336.664 -56.9376 0.338624 344.819 -58.4626 0.245873 352.996 -60.4065 0.161681 361.226 -62.705 0.0850426 369.538 -65.3052 0.0151061 377.961 -68.1632 -0.0488594 386.521 -71.243 -0.107483 395.246 -74.5148 -0.161308 404.16 -77.9539 -0.210809 413.292 -81.5405 -0.2564 422.669 -85.2584 -0.298445 427.048 -86.5799 -0.318004 426.395 -85.5832 -0.31744 425.971 -84.8027 -0.316761 425.787 -84.2303 -0.315977 425.852 -83.8597 -0.315098 426.178 -83.6862 -0.314131 426.778 -83.7067 -0.313085 427.667 -83.9197 -0.311967 428.862 -84.3251 -0.310782 430.378 -84.9243 -0.309536 432.238 -85.7203 -0.308234 434.464 -86.7178 -0.306882 437.081 -87.9229 -0.305482 440.119 -89.3439 -0.30404 443.611 -90.991 -0.302558 292.049 -68.8952 0.716386 300.909 -69.3971 0.59393 309.604 -70.5476 0.484087 318.183 -72.2362 0.385187 326.688 -74.3731 0.29584 335.157 -76.8855 0.214882 343.626 -79.7134 0.141329 352.126 -82.808 0.0743422 360.688 -86.129 0.0132045 369.34 -89.6435 -0.0427015 378.112 -93.3246 -0.0939107 387.029 -97.1505 -0.140888 396.121 -101.104 -0.184041 405.415 -105.17 -0.223726 414.939 -109.339 -0.260259 419.472 -110.884 -0.277134 418.991 -109.892 -0.276445 418.746 -109.103 -0.275641 418.746 -108.51 -0.274733 419.003 -108.108 -0.273729 419.53 -107.895 -0.27264 420.343 -107.869 -0.271471 421.455 -108.028 -0.270231 422.887 -108.375 -0.268925 424.657 -108.912 -0.267559 426.788 -109.642 -0.266138 429.305 -110.572 -0.264668 432.238 -111.708 -0.263151 435.618 -113.061 -0.261593 439.483 -114.641 -0.259997 280.778 -81.1141 0.619991 289.922 -83.0206 0.514481 298.885 -85.4087 0.419626 307.714 -88.1952 0.33407 316.451 -91.3125 0.256673 325.133 -94.7056 0.186475 333.797 -98.3298 0.122657 342.474 -102.149 0.0645188 351.195 -106.133 0.0114583 359.989 -110.258 -0.0370465 368.884 -114.506 -0.0814495 377.91 -118.862 -0.122147 387.094 -123.313 -0.159488 396.464 -127.852 -0.193779 406.05 -132.473 -0.225292 410.67 -134.257 -0.239748 410.314 -133.293 -0.238988 410.196 -132.523 -0.238118 410.328 -131.943 -0.237148 410.722 -131.549 -0.236087 411.393 -131.339 -0.234944 412.355 -131.313 -0.233725 413.627 -131.472 -0.232438 415.227 -131.819 -0.231089 417.177 -132.357 -0.229683 419.501 -133.092 -0.228225 422.227 -134.03 -0.22672 425.386 -135.182 -0.225173 429.014 -136.559 -0.223587 433.151 -138.172 -0.221965 269.621 -93.4468 0.531581 278.944 -96.5672 0.441423 288.075 -100.034 0.360227 297.06 -103.785 0.28689 305.939 -107.77 0.220478 314.75 -111.95 0.160199 323.527 -116.291 0.105376 332.302 -120.769 0.0554251 341.104 -125.363 0.00984173 349.965 -130.056 -0.0318123 358.911 -134.836 -0.0699202 367.972 -139.696 -0.104818 377.175 -144.627 -0.136801 386.549 -149.628 -0.166132 396.125 -154.697 -0.193043 400.774 -156.726 -0.205308 400.502 -155.808 -0.204525 400.469 -155.079 -0.203641 400.688 -154.536 -0.202664 401.172 -154.178 -0.201603 401.936 -154.004 -0.200466 402.996 -154.016 -0.199259 404.37 -154.215 -0.19799 406.079 -154.607 -0.196663 408.144 -155.197 -0.195284 410.593 -155.992 -0.193858 413.454 -157 -0.192389 416.76 -158.234 -0.190881 420.55 -159.706 -0.189338 424.866 -161.433 -0.187764 258.508 -105.824 0.44958 267.92 -109.997 0.373525 277.136 -114.405 0.304937 286.196 -119.005 0.242921 295.142 -123.76 0.186718 304.008 -128.642 0.135678 312.828 -133.631 0.0892444 321.633 -138.708 0.0469354 330.452 -143.86 0.00833277 339.314 -149.08 -0.0269283 348.248 -154.36 -0.0591677 357.281 -159.696 -0.088667 366.442 -165.088 -0.115675 375.758 -170.537 -0.140412 385.26 -176.045 -0.163074 389.892 -178.322 -0.173339 389.669 -177.463 -0.172578 389.685 -176.79 -0.171724 389.954 -176.303 -0.170787 390.488 -176.003 -0.169775 391.303 -175.889 -0.168695 392.415 -175.966 -0.167552 393.843 -176.238 -0.166353 395.608 -176.709 -0.165103 397.734 -177.389 -0.163808 400.247 -178.286 -0.16247 403.178 -179.411 -0.161094 406.562 -180.777 -0.159685 410.437 -182.402 -0.158245 414.85 -184.304 -0.156777 247.386 -118.192 0.3727 256.81 -123.28 0.309773 266.036 -128.512 0.252963 275.103 -133.859 0.201555 284.049 -139.296 0.154938 292.907 -144.807 0.112588 301.709 -150.378 0.0740525 310.484 -155.999 0.0389412 319.263 -161.665 0.00691229 328.071 -167.371 -0.0223327 336.938 -173.118 -0.0490563 345.89 -178.905 -0.0734901 354.954 -184.737 -0.0958393 364.16 -190.617 -0.116286 373.535 -196.553 -0.134994 378.109 -199.078 -0.143422 377.907 -198.285 -0.142717 377.943 -197.68 -0.141932 378.229 -197.262 -0.141075 378.78 -197.034 -0.140153 379.61 -196.999 -0.139172 380.736 -197.162 -0.138137 382.177 -197.528 -0.137053 383.955 -198.105 -0.135925 386.093 -198.903 -0.134758 388.619 -199.933 -0.133555 391.563 -201.209 -0.13232 394.962 -202.747 -0.131056 398.855 -204.565 -0.129765 403.29 -206.687 -0.128452 236.214 -130.51 0.299869 245.581 -136.394 0.249311 254.751 -142.347 0.203632 263.762 -148.351 0.16227 272.648 -154.394 0.124746 281.442 -160.465 0.0906475 290.171 -166.56 0.059618 298.866 -172.675 0.031347 307.554 -178.81 0.00556336 316.26 -184.967 -0.0179708 325.012 -191.148 -0.0394649 333.836 -197.361 -0.0591044 342.759 -203.61 -0.0770537 351.808 -209.905 -0.0934594 361.011 -216.256 -0.108452 365.492 -219.025 -0.115175 365.288 -218.303 -0.114557 365.319 -217.772 -0.113873 365.598 -217.432 -0.113129 366.137 -217.288 -0.112331 366.953 -217.344 -0.111483 368.061 -217.606 -0.11059 369.481 -218.083 -0.109658 371.233 -218.784 -0.108689 373.342 -219.721 -0.107687 375.836 -220.906 -0.106656 378.745 -222.357 -0.105598 382.105 -224.092 -0.104517 385.957 -226.134 -0.103414 390.349 -228.508 -0.102293 224.961 -142.747 0.230172 234.205 -149.322 0.191405 243.259 -155.905 0.156357 252.157 -162.487 0.124608 260.93 -169.065 0.0957961 269.607 -175.637 0.0696097 278.216 -182.202 0.0457787 286.784 -188.765 0.0240678 295.336 -195.329 0.00427087 303.897 -201.9 -0.0137933 312.493 -208.487 -0.0302845 321.148 -215.098 -0.0453446 329.889 -221.743 -0.0590993 338.742 -228.434 -0.0716611 347.734 -235.185 -0.0831305 352.094 -238.192 -0.0882528 351.869 -237.545 -0.0877475 351.875 -237.091 -0.0871898 352.125 -236.834 -0.0865846 352.631 -236.78 -0.0859365 353.407 -236.935 -0.0852497 354.471 -237.307 -0.0845278 355.84 -237.905 -0.0837744 357.536 -238.741 -0.0829925 359.582 -239.829 -0.082185 362.006 -241.184 -0.0813545 364.837 -242.825 -0.0805035 368.112 -244.775 -0.079634 371.872 -247.057 -0.0787482 376.164 -249.703 -0.077848 213.604 -154.88 0.162806 222.663 -162.054 0.135405 231.543 -169.185 0.110622 240.274 -176.274 0.0881643 248.883 -183.325 0.0677797 257.396 -190.34 0.0492506 265.84 -197.328 0.0323878 274.238 -204.294 0.0170262 282.613 -211.249 0.00302098 290.99 -218.201 -0.00975525 299.393 -225.164 -0.0214151 307.844 -232.147 -0.0320586 316.368 -239.166 -0.0417745 324.99 -246.235 -0.0506424 333.736 -253.369 -0.0587333 337.951 -256.606 -0.0623359 337.69 -256.033 -0.0619616 337.656 -255.658 -0.0615495 337.859 -255.487 -0.0611032 338.313 -255.527 -0.060626 339.031 -255.784 -0.060121 340.029 -256.27 -0.0595907 341.324 -256.995 -0.0590378 342.938 -257.972 -0.0584645 344.892 -259.218 -0.0578728 347.214 -260.75 -0.0572647 349.933 -262.589 -0.056642 353.084 -264.761 -0.0560061 356.708 -267.293 -0.0553587 360.849 -270.219 -0.054701 202.127 -166.892 0.0970535 210.94 -174.582 0.080726 219.589 -182.189 0.0659547 228.1 -189.72 0.0525666 236.496 -197.185 0.0404128 244.801 -204.593 0.0293645 253.036 -211.956 0.0193096 261.224 -219.286 0.0101504 269.386 -226.595 0.00180086 277.543 -233.896 -0.00581472 285.718 -241.205 -0.0127633 293.932 -248.536 -0.0191043 302.208 -255.906 -0.0248907 310.569 -263.331 -0.0301699 319.04 -270.83 -0.0349842 323.09 -274.289 -0.0371234 322.781 -273.789 -0.0368936 322.693 -273.492 -0.0366409 322.837 -273.407 -0.0363675 323.224 -273.54 -0.0360756 323.868 -273.9 -0.0357668 324.782 -274.501 -0.0354429 325.985 -275.353 -0.0351053 327.495 -276.473 -0.0347554 329.334 -277.878 -0.0343946 331.529 -279.588 -0.0340239 334.106 -281.626 -0.0336443 337.101 -284.02 -0.033257 340.551 -286.801 -0.0328627 344.502 -290.006 -0.0324624 190.518 -178.773 0.0322471 199.023 -186.905 0.0268233 207.385 -194.92 0.0219157 215.623 -202.833 0.0174673 223.759 -210.659 0.0134287 231.81 -218.412 0.0097574 239.796 -226.107 0.00641619 247.735 -233.761 0.00337266 255.647 -241.388 0.000598345 263.552 -249.007 -0.00193188 271.467 -256.634 -0.00424022 279.414 -264.286 -0.00634643 287.414 -271.983 -0.00826809 295.487 -279.744 -0.0100209 303.657 -287.589 -0.011619 307.524 -291.258 -0.0123284 307.157 -290.827 -0.0122509 307.007 -290.606 -0.0121657 307.081 -290.603 -0.0120737 307.39 -290.827 -0.0119755 307.947 -291.289 -0.0118716 308.766 -292.001 -0.0117626 309.861 -292.978 -0.0116492 311.251 -294.237 -0.0115316 312.958 -295.797 -0.0114103 315.004 -297.68 -0.0112858 317.417 -299.912 -0.0111583 320.229 -302.521 -0.0110282 323.477 -305.544 -0.0108959 327.203 -309.018 -0.0107615 178.773 -190.518 -0.0322471 186.905 -199.023 -0.0268233 194.92 -207.385 -0.0219157 202.833 -215.623 -0.0174673 210.659 -223.759 -0.0134287 218.412 -231.81 -0.0097574 226.107 -239.796 -0.00641619 233.761 -247.735 -0.00337266 241.388 -255.647 -0.000598344 249.007 -263.552 0.00193188 256.634 -271.467 0.00424023 264.286 -279.414 0.00634643 271.983 -287.414 0.00826809 279.744 -295.487 0.0100209 287.589 -303.657 0.011619 291.258 -307.524 0.0123284 290.827 -307.157 0.0122509 290.606 -307.007 0.0121657 290.603 -307.081 0.0120737 290.827 -307.39 0.0119754 291.289 -307.947 0.0118716 292.001 -308.766 0.0117626 292.978 -309.861 0.0116492 294.237 -311.251 0.0115316 295.797 -312.958 0.0114103 297.68 -315.004 0.0112858 299.912 -317.417 0.0111583 302.521 -320.229 0.0110282 305.544 -323.477 0.0108959 309.018 -327.203 0.0107615 166.892 -202.127 -0.0970535 174.582 -210.94 -0.080726 182.189 -219.589 -0.0659547 189.72 -228.1 -0.0525666 197.185 -236.496 -0.0404128 204.593 -244.801 -0.0293645 211.956 -253.036 -0.0193096 219.286 -261.224 -0.0101504 226.595 -269.386 -0.00180086 233.896 -277.543 0.00581472 241.205 -285.718 0.0127633 248.536 -293.932 0.0191043 255.906 -302.208 0.0248907 263.331 -310.569 0.0301699 270.83 -319.04 0.0349842 274.289 -323.09 0.0371234 273.789 -322.781 0.0368936 273.492 -322.693 0.0366409 273.407 -322.837 0.0363675 273.54 -323.224 0.0360756 273.9 -323.868 0.0357668 274.501 -324.782 0.0354429 275.353 -325.985 0.0351053 276.473 -327.495 0.0347554 277.878 -329.334 0.0343946 279.588 -331.529 0.0340239 281.626 -334.106 0.0336443 284.02 -337.101 0.033257 286.801 -340.551 0.0328627 290.006 -344.502 0.0324624 154.88 -213.604 -0.162806 162.054 -222.663 -0.135405 169.185 -231.543 -0.110622 176.274 -240.274 -0.0881643 183.325 -248.883 -0.0677797 190.34 -257.396 -0.0492506 197.328 -265.84 -0.0323878 204.294 -274.238 -0.0170262 211.249 -282.613 -0.00302098 218.201 -290.99 0.00975525 225.164 -299.393 0.0214151 232.147 -307.844 0.0320586 239.166 -316.368 0.0417745 246.235 -324.99 0.0506424 253.369 -333.736 0.0587333 256.606 -337.951 0.0623359 256.033 -337.69 0.0619616 255.658 -337.656 0.0615495 255.487 -337.859 0.0611032 255.527 -338.313 0.060626 255.784 -339.031 0.060121 256.27 -340.029 0.0595907 256.995 -341.324 0.0590378 257.972 -342.938 0.0584645 259.218 -344.892 0.0578728 260.75 -347.214 0.0572647 262.589 -349.933 0.056642 264.761 -353.084 0.0560061 267.293 -356.708 0.0553587 270.219 -360.849 0.054701 142.747 -224.961 -0.230172 149.322 -234.205 -0.191405 155.905 -243.259 -0.156357 162.487 -252.157 -0.124608 169.065 -260.93 -0.0957961 175.637 -269.607 -0.0696097 182.202 -278.216 -0.0457787 188.765 -286.784 -0.0240678 195.329 -295.336 -0.00427087 201.9 -303.897 0.0137933 208.487 -312.493 0.0302845 215.098 -321.148 0.0453446 221.743 -329.889 0.0590993 228.434 -338.742 0.0716611 235.185 -347.734 0.0831305 238.192 -352.094 0.0882528 237.545 -351.869 0.0877475 237.091 -351.875 0.0871898 236.834 -352.125 0.0865846 236.78 -352.631 0.0859365 236.935 -353.407 0.0852496 237.307 -354.471 0.0845278 237.905 -355.84 0.0837744 238.741 -357.536 0.0829925 239.829 -359.582 0.082185 241.184 -362.006 0.0813545 242.825 -364.837 0.0805035 244.775 -368.112 0.079634 247.057 -371.872 0.0787482 249.703 -376.164 0.077848 130.51 -236.214 -0.299869 136.394 -245.581 -0.249311 142.347 -254.751 -0.203632 148.351 -263.762 -0.16227 154.394 -272.648 -0.124746 160.465 -281.442 -0.0906475 166.56 -290.171 -0.059618 172.675 -298.866 -0.031347 178.81 -307.554 -0.00556336 184.967 -316.26 0.0179708 191.148 -325.012 0.0394649 197.361 -333.836 0.0591044 203.61 -342.759 0.0770537 209.905 -351.808 0.0934594 216.256 -361.011 0.108452 219.025 -365.492 0.115175 218.303 -365.288 0.114557 217.772 -365.319 0.113873 217.432 -365.598 0.113129 217.288 -366.137 0.112331 217.344 -366.953 0.111483 217.606 -368.061 0.11059 218.083 -369.481 0.109658 218.784 -371.233 0.108689 219.721 -373.342 0.107687 220.906 -375.836 0.106656 222.357 -378.745 0.105598 224.092 -382.105 0.104517 226.134 -385.957 0.103414 228.508 -390.349 0.102293 118.192 -247.386 -0.3727 123.28 -256.81 -0.309773 128.512 -266.036 -0.252963 133.859 -275.103 -0.201555 139.296 -284.049 -0.154938 144.807 -292.907 -0.112588 150.378 -301.709 -0.0740525 155.999 -310.484 -0.0389412 161.665 -319.263 -0.00691229 167.371 -328.071 0.0223327 173.118 -336.938 0.0490563 178.905 -345.89 0.0734901 184.737 -354.954 0.0958393 190.617 -364.16 0.116286 196.553 -373.535 0.134994 199.078 -378.109 0.143422 198.285 -377.907 0.142717 197.68 -377.943 0.141932 197.262 -378.229 0.141075 197.034 -378.78 0.140153 196.999 -379.61 0.139172 197.162 -380.736 0.138137 197.528 -382.177 0.137053 198.105 -383.955 0.135925 198.903 -386.093 0.134758 199.933 -388.619 0.133555 201.209 -391.563 0.13232 202.747 -394.962 0.131056 204.565 -398.855 0.129765 206.687 -403.29 0.128452 105.824 -258.508 -0.44958 109.997 -267.92 -0.373525 114.405 -277.136 -0.304937 119.005 -286.196 -0.242921 123.76 -295.142 -0.186718 128.642 -304.008 -0.135678 133.631 -312.828 -0.0892444 138.708 -321.633 -0.0469354 143.86 -330.452 -0.00833277 149.08 -339.314 0.0269283 154.36 -348.248 0.0591677 159.696 -357.281 0.088667 165.088 -366.442 0.115675 170.537 -375.758 0.140412 176.045 -385.26 0.163074 178.322 -389.892 0.173339 177.463 -389.669 0.172578 176.79 -389.685 0.171724 176.303 -389.954 0.170787 176.003 -390.488 0.169775 175.889 -391.303 0.168695 175.966 -392.415 0.167552 176.238 -393.843 0.166353 176.709 -395.608 0.165103 177.389 -397.734 0.163808 178.286 -400.247 0.16247 179.411 -403.178 0.161094 180.777 -406.562 0.159685 182.402 -410.437 0.158245 184.304 -414.85 0.156777 93.4468 -269.621 -0.531581 96.5672 -278.944 -0.441423 100.034 -288.075 -0.360227 103.785 -297.06 -0.28689 107.77 -305.939 -0.220478 111.95 -314.75 -0.160199 116.291 -323.527 -0.105376 120.769 -332.302 -0.0554251 125.363 -341.104 -0.00984173 130.056 -349.965 0.0318123 134.836 -358.911 0.0699202 139.696 -367.972 0.104818 144.627 -377.175 0.136801 149.628 -386.549 0.166132 154.697 -396.125 0.193043 156.726 -400.774 0.205308 155.808 -400.502 0.204525 155.079 -400.469 0.203641 154.536 -400.688 0.202664 154.178 -401.172 0.201603 154.004 -401.936 0.200466 154.016 -402.996 0.199259 154.215 -404.37 0.19799 154.607 -406.079 0.196663 155.197 -408.144 0.195284 155.992 -410.593 0.193858 157 -413.454 0.192389 158.234 -416.76 0.190881 159.706 -420.55 0.189338 161.433 -424.866 0.187764 81.1141 -280.778 -0.619991 83.0206 -289.922 -0.514481 85.4087 -298.885 -0.419626 88.1952 -307.714 -0.33407 91.3125 -316.451 -0.256673 94.7056 -325.133 -0.186475 98.3298 -333.797 -0.122657 102.149 -342.474 -0.0645188 106.133 -351.195 -0.0114583 110.258 -359.989 0.0370465 114.506 -368.884 0.0814495 118.862 -377.91 0.122147 123.313 -387.094 0.159488 127.852 -396.464 0.193779 132.473 -406.05 0.225292 134.257 -410.67 0.239748 133.293 -410.314 0.238988 132.523 -410.196 0.238118 131.943 -410.328 0.237148 131.549 -410.722 0.236087 131.339 -411.393 0.234944 131.313 -412.355 0.233725 131.472 -413.627 0.232438 131.819 -415.227 0.231089 132.357 -417.177 0.229683 133.092 -419.501 0.228225 134.03 -422.227 0.22672 135.182 -425.386 0.225173 136.559 -429.014 0.223587 138.172 -433.151 0.221965 68.8952 -292.049 -0.716386 69.3971 -300.909 -0.59393 70.5476 -309.604 -0.484087 72.2362 -318.183 -0.385187 74.3731 -326.688 -0.29584 76.8855 -335.157 -0.214882 79.7134 -343.626 -0.141329 82.808 -352.126 -0.0743422 86.129 -360.688 -0.0132045 89.6435 -369.34 0.0427015 93.3246 -378.112 0.0939107 97.1505 -387.029 0.140888 101.104 -396.121 0.184041 105.17 -405.415 0.223726 109.339 -414.939 0.260259 110.884 -419.472 0.277134 109.892 -418.991 0.276445 109.103 -418.746 0.275641 108.51 -418.746 0.274733 108.108 -419.003 0.273729 107.895 -419.53 0.27264 107.869 -420.343 0.271471 108.028 -421.455 0.270231 108.375 -422.887 0.268925 108.912 -424.657 0.267559 109.642 -426.788 0.266138 110.572 -429.305 0.264668 111.708 -432.238 0.263151 113.061 -435.618 0.261593 114.641 -439.483 0.259997 56.8806 -303.524 -0.822736 55.7499 -311.972 -0.681292 55.4747 -320.28 -0.554775 55.9097 -328.497 -0.441119 56.9376 -336.664 -0.338624 58.4626 -344.819 -0.245873 60.4065 -352.996 -0.161681 62.705 -361.226 -0.0850426 65.3052 -369.538 -0.0151061 68.1632 -377.961 0.0488594 71.243 -386.521 0.107483 74.5148 -395.246 0.161308 77.9539 -404.16 0.210809 81.5405 -413.292 0.2564 85.2584 -422.669 0.298445 86.5799 -427.048 0.318004 85.5832 -426.395 0.31744 84.8027 -425.971 0.316761 84.2303 -425.787 0.315977 83.8597 -425.852 0.315098 83.6862 -426.178 0.314131 83.7067 -426.778 0.313085 83.9197 -427.667 0.311967 84.3251 -428.862 0.310782 84.9243 -430.378 0.309536 85.7203 -432.238 0.308235 86.7178 -434.464 0.306882 87.9229 -437.081 0.305482 89.3439 -440.119 0.30404 90.991 -443.611 0.302558 45.1898 -315.323 -0.941566 42.149 -323.2 -0.778488 40.2235 -330.973 -0.633142 39.2222 -338.691 -0.502951 38.9919 -346.392 -0.385811 39.4083 -354.111 -0.279993 40.37 -361.881 -0.184056 41.7939 -369.731 -0.0967958 43.6116 -377.687 -0.0171934 45.7662 -385.776 0.0556165 48.2107 -394.024 0.122374 50.9061 -402.454 0.183717 53.8199 -411.092 0.240197 56.9253 -419.963 0.292293 60.2 -429.092 0.340423 61.3191 -433.24 0.362974 60.3508 -432.357 0.362595 59.6174 -431.697 0.362106 59.1091 -431.266 0.361517 58.8183 -431.074 0.360837 58.7392 -431.132 0.360074 58.8675 -431.45 0.359235 59.201 -432.042 0.358326 59.7387 -432.92 0.357353 60.4814 -434.101 0.356321 61.4315 -435.602 0.355236 62.593 -437.443 0.354102 63.9717 -439.646 0.352921 65.5753 -442.236 0.351699 67.4135 -445.242 0.350438 33.9824 -327.605 -1.07617 28.6888 -334.707 -0.887994 24.8405 -341.761 -0.721038 22.1854 -348.81 -0.572042 20.5229 -355.887 -0.43838 19.6917 -363.024 -0.317911 19.5611 -370.248 -0.208875 20.0243 -377.585 -0.109814 20.9938 -385.058 -0.0195029 22.397 -392.691 0.0630877 24.1739 -400.505 0.138833 26.2746 -408.524 0.208483 28.6575 -416.768 0.272678 31.2877 -425.262 0.331977 34.1365 -434.028 0.386862 35.0852 -437.854 0.412757 34.1887 -436.676 0.412627 33.552 -435.709 0.412399 33.1641 -434.962 0.412083 33.0159 -434.44 0.411687 33.1006 -434.153 0.411217 33.4135 -434.109 0.410681 33.9516 -434.318 0.410082 34.7136 -434.792 0.409428 35.7002 -435.544 0.408721 36.9136 -436.588 0.407967 38.3579 -437.941 0.407168 40.0391 -439.621 0.406328 41.9651 -441.648 0.405451 44.1459 -444.047 0.404539 23.4755 -340.588 -1.23098 15.4967 -346.647 -1.01307 9.38977 -352.745 -0.820856 4.81842 -358.91 -0.650134 1.51825 -365.169 -0.497563 -0.720927 -371.542 -0.360464 -2.06795 -378.052 -0.236657 -2.6596 -384.716 -0.124355 -2.60755 -391.555 -0.0220787 -2.00356 -398.585 0.0714109 -0.923434 -405.825 0.157155 0.569932 -413.294 0.236038 2.42417 -421.009 0.308812 4.59561 -428.99 0.376127 7.04775 -437.258 0.438542 7.87115 -440.657 0.468186 7.10333 -439.107 0.468368 6.6277 -437.757 0.468476 6.4317 -436.612 0.468518 6.50544 -435.677 0.468499 6.84146 -434.958 0.468424 7.43458 -434.46 0.468299 8.28168 -434.193 0.468127 9.38171 -434.164 0.467912 10.7355 -434.383 0.467658 12.346 -434.862 0.467367 14.218 -435.613 0.467043 16.3583 -436.651 0.466687 18.7759 -437.991 0.466303 21.482 -439.651 0.465892 13.9708 -354.573 -1.41206 2.74849 -359.231 -1.15811 -6.03938 -364.06 -0.935775 -12.8488 -369.067 -0.739498 -18.0323 -374.259 -0.564951 -21.8664 -379.644 -0.408714 -24.5703 -385.232 -0.268051 -26.32 -391.032 -0.140744 -27.2576 -397.054 -0.0249752 -27.4992 -403.309 0.0807546 -27.1398 -409.808 0.177697 -26.2581 -416.564 0.266905 -24.919 -423.591 0.349267 -23.1766 -430.903 0.425543 -21.0761 -438.517 0.496383 -20.3163 -441.369 0.530236 -20.8817 -439.361 0.530793 -21.1142 -437.54 0.531314 -21.0276 -435.907 0.531802 -20.6324 -434.464 0.532261 -19.9365 -433.215 0.532693 -18.9448 -432.164 0.5331 -17.6603 -431.315 0.533485 -16.0831 -430.674 0.533849 -14.2117 -430.247 0.534193 -12.0418 -430.042 0.53452 -9.56731 -430.067 0.534831 -6.77957 -430.333 0.535127 -3.66766 -430.85 0.535408 -0.218077 -431.631 0.535677 626.468 -19.3164 4.71209 638.044 -1.45673 3.95744 649.808 12.311 3.42098 661.775 22.7883 3.0422 673.96 30.5934 2.77503 686.379 36.2098 2.58394 699.049 40.0209 2.44118 711.988 42.3339 2.3249 725.213 43.3977 2.2177 738.745 43.4155 2.1056 752.603 42.5546 1.97731 766.808 40.9539 1.82359 781.384 38.7292 1.63686 796.353 35.9779 1.4108 811.741 32.7822 1.14013 818.673 32.0694 1.2641 817.084 33.5564 1.75129 815.854 34.3305 2.148 814.988 34.4437 2.4538 814.494 33.9395 2.668 814.38 32.854 2.78964 814.655 31.2174 2.81744 815.33 29.054 2.74983 816.417 26.3832 2.58491 817.93 23.2197 2.3204 819.885 19.5741 1.95366 822.299 15.453 1.48162 825.192 10.8591 0.900774 828.586 5.79154 0.207099 832.504 0.245875 -0.603959 601.936 -36.6575 3.01537 615.913 -24.3771 2.47645 629.829 -15.2172 2.10594 643.738 -8.58812 1.85647 657.684 -4.02709 1.69151 671.71 -1.16678 1.58261 685.851 0.287709 1.50741 700.142 0.575393 1.44819 714.615 -0.108304 1.39082 729.301 -1.60238 1.32397 744.231 -3.77324 1.23849 759.434 -6.50936 1.12698 774.94 -9.71711 0.98338 790.781 -13.3174 0.802741 806.988 -17.2433 0.580966 814.826 -18.2992 0.7126 814.252 -16.7665 1.16955 814.022 -15.8427 1.5452 814.146 -15.4824 1.83958 814.637 -15.6475 2.05251 815.506 -16.3056 2.18357 816.769 -17.4297 2.23209 818.44 -18.9976 2.19716 820.536 -20.9913 2.07756 823.075 -23.3967 1.87178 826.078 -26.2035 1.57801 829.567 -29.4045 1.19407 833.566 -32.9959 0.717389 838.103 -36.9769 0.144995 843.208 -41.35 -0.526556 578.995 -55.5893 1.74434 594.767 -47.9765 1.36217 610.315 -42.7435 1.11209 625.711 -39.4502 0.956136 641.017 -37.7464 0.864763 656.29 -37.3512 0.814785 671.576 -38.0366 0.787894 686.921 -39.6162 0.769552 702.364 -41.9367 0.748171 717.946 -44.8708 0.714478 733.702 -48.3127 0.661035 749.67 -52.1734 0.581862 765.883 -56.3781 0.472146 782.379 -60.8635 0.328006 799.193 -65.5758 0.146307 807.74 -67.0577 0.280481 807.998 -65.5871 0.705408 808.587 -64.638 1.05757 809.52 -64.1715 1.33735 810.815 -64.1542 1.54496 812.486 -64.5581 1.68042 814.551 -65.3595 1.74354 817.03 -66.5388 1.73392 819.943 -68.08 1.65091 823.313 -69.9705 1.49363 827.162 -72.2007 1.26092 831.519 -74.7641 0.951336 836.412 -77.6567 0.56309 841.873 -80.8776 0.0940632 847.939 -84.4282 -0.458261 557.174 -75.6402 0.802749 574.284 -71.9836 0.535472 591.06 -70.1313 0.373054 607.584 -69.7516 0.28454 623.928 -70.5781 0.245667 640.152 -72.395 0.237306 656.313 -75.0259 0.244308 672.46 -78.3261 0.25464 688.639 -82.1755 0.258725 704.894 -86.4746 0.248933 721.266 -91.1402 0.219191 737.795 -96.1022 0.16467 754.521 -101.302 0.0815461 771.481 -106.69 -0.0332011 788.715 -112.224 -0.18194 797.797 -114.191 -0.0492186 798.726 -112.864 0.342531 799.972 -111.986 0.669442 801.553 -111.524 0.932171 803.488 -111.45 1.13122 805.797 -111.739 1.26695 808.499 -112.371 1.33953 811.618 -113.33 1.34897 815.175 -114.603 1.29507 819.198 -116.178 1.17743 823.713 -118.049 0.99543 828.751 -120.208 0.748191 834.345 -122.654 0.434578 840.531 -125.386 0.0531584 847.35 -128.407 -0.397825 536.129 -96.468 0.119992 554.223 -96.1996 -0.0628051 571.909 -97.2812 -0.161654 589.273 -99.4619 -0.202095 606.389 -102.539 -0.204251 623.322 -106.346 -0.184039 640.13 -110.747 -0.154079 656.867 -115.632 -0.124389 673.581 -120.906 -0.102918 690.319 -126.494 -0.0959617 707.124 -132.33 -0.108488 724.039 -138.362 -0.144392 741.106 -144.543 -0.206703 758.364 -150.836 -0.29775 775.856 -157.211 -0.419292 785.321 -159.703 -0.291145 786.775 -158.581 0.0667254 788.536 -157.848 0.367137 790.622 -157.476 0.61093 793.054 -157.442 0.798827 795.854 -157.727 0.931418 799.046 -158.314 1.00916 802.653 -159.189 1.03235 806.701 -160.343 1.00113 811.219 -161.766 0.915491 816.237 -163.453 0.775204 821.788 -165.4 0.579858 827.909 -167.608 0.328815 834.64 -170.075 0.0211944 842.024 -172.807 -0.344151 515.608 -117.819 -0.357056 534.404 -120.476 -0.477925 552.744 -124.12 -0.531233 570.711 -128.562 -0.538205 588.38 -133.646 -0.515624 605.816 -139.247 -0.476793 623.08 -145.261 -0.43226 640.225 -151.604 -0.390388 657.302 -158.205 -0.357785 674.359 -165.005 -0.339648 691.44 -171.956 -0.340037 708.588 -179.019 -0.362089 725.848 -186.16 -0.40819 743.261 -193.351 -0.480115 760.868 -200.571 -0.579144 770.581 -203.613 -0.458017 772.436 -202.739 -0.13441 774.585 -202.205 0.138623 777.049 -201.989 0.362038 779.852 -202.073 0.536693 783.016 -202.44 0.663343 786.566 -203.079 0.74263 790.528 -203.979 0.775072 794.93 -205.133 0.761058 799.803 -206.535 0.700835 805.178 -208.182 0.594496 811.093 -210.074 0.441971 817.585 -212.211 0.243005 824.698 -214.597 -0.00285377 832.481 -217.238 -0.296278 495.419 -139.503 -0.669308 514.689 -144.702 -0.74524 533.469 -150.595 -0.766691 551.842 -157.04 -0.751345 569.879 -163.919 -0.713221 587.646 -171.14 -0.663442 605.202 -178.624 -0.610824 622.6 -186.308 -0.562341 639.892 -194.141 -0.523477 657.125 -202.079 -0.498517 674.345 -210.088 -0.490768 691.595 -218.14 -0.502745 708.919 -226.211 -0.536313 726.36 -234.285 -0.59281 743.959 -242.346 -0.67314 753.805 -245.952 -0.560951 755.949 -245.355 -0.271769 758.377 -245.06 -0.0267174 761.11 -245.049 0.175214 764.172 -245.307 0.334956 767.587 -245.824 0.453358 771.381 -246.591 0.531175 775.581 -247.6 0.569063 780.217 -248.849 0.567572 785.32 -250.334 0.527137 790.926 -252.056 0.448067 797.071 -254.017 0.330538 803.796 -256.22 0.174576 811.148 -258.673 -0.0199511 819.177 -261.383 -0.253356 475.417 -161.373 -0.848958 494.97 -168.793 -0.89291 514.012 -176.667 -0.893003 532.622 -184.891 -0.863935 550.87 -193.379 -0.817381 568.818 -202.063 -0.762608 586.524 -210.886 -0.706954 604.042 -219.804 -0.656206 621.42 -228.779 -0.614895 638.707 -237.783 -0.586534 655.946 -246.792 -0.573802 673.183 -255.788 -0.578704 690.46 -264.758 -0.602683 707.819 -273.692 -0.646733 725.303 -282.584 -0.711469 735.18 -286.756 -0.609724 737.519 -286.455 -0.354984 740.13 -286.425 -0.138316 743.035 -