<?xml version="1.0"?> 
<VTKFile type="StructuredGrid" version="0.1"> 
<StructuredGrid WholeExtent="0 14 0 14 0 29"> 
<Piece Extent="0 14 0 14 0 29"> 
<PointData>
<DataArray type="Float32" Name="hfield" format="ascii" NumberOfComponents="3"> 
-10.4862 -2.74932 1.68762 -15.4057 -0.574953 1.32943 -20.4226 1.24407 1.04715 -25.5971 2.76664 0.818952 -30.9951 4.0309 0.630661 -36.6911 5.06118 0.472647 -42.7719 5.87154 0.338151 -49.3413 6.46757 0.222286 -46.4421 4.14485 -0.562424 -43.543 2.46581 -1.25166 -40.6031 1.39687 -1.86184 -37.5727 0.936592 -2.40583 -34.3886 1.11823 -2.89385 -30.9669 2.01782 -3.33412 -27.1903 3.77062 -3.73331 -8.06599 -3.2787 1.26301 -13.0728 -0.343473 1.00585 -18.1396 2.18421 0.797892 -23.3244 4.37955 0.626682 -28.6923 6.29685 0.483636 -34.3175 7.97621 0.362647 -40.2869 9.4476 0.259252 -46.7056 10.7334 0.170112 -44.0296 8.44984 -0.429268 -41.3536 6.68898 -0.952106 -38.6453 5.41913 -1.41065 -35.8633 4.63273 -1.81469 -32.9526 4.34881 -2.17212 -29.8375 4.61993 -2.48941 -26.4079 5.54641 -2.77189 -6.2176 -3.23631 0.950472 -11.2266 0.215971 0.761482 -16.2568 3.26061 0.606252 -21.3647 5.97613 0.47705 -26.6142 8.42358 0.368328 -32.078 10.6522 0.276002 -37.8419 12.7032 0.196998 -44.0094 14.6124 0.128961 -41.4905 12.3683 -0.324457 -38.9844 10.5508 -0.717101 -36.4647 9.12989 -1.05822 -33.897 8.09343 -1.35531 -31.234 7.44908 -1.61451 -28.409 7.22971 -1.84091 -25.3231 7.50489 -2.03875 -4.70518 -2.85795 0.704498 -9.67655 0.967016 0.566243 -14.6252 4.407 0.451597 -19.608 7.53981 0.355552 -24.6881 10.4296 0.274409 -29.9371 13.1317 0.205379 -35.4386 15.696 0.146319 -41.2931 18.1699 0.0955532 -38.8853 15.9573 -0.239705 -36.5107 14.0942 -0.52802 -34.147 12.5526 -0.776301 -31.7648 11.3171 -0.990215 -29.3243 10.3868 -1.17445 -26.7682 9.77844 -1.33293 -24.0109 9.53529 -1.46895 -3.40336 -2.26898 0.499805 -8.3145 1.83551 0.402398 -13.1552 5.58892 0.321153 -17.9839 9.06702 0.25283 -22.8639 12.3354 0.194986 -27.8656 15.4536 0.145747 -33.0701 18.4784 0.103651 -38.5741 21.4677 0.0675416 -36.2455 19.2752 -0.169004 -33.9751 17.3695 -0.371211 -31.743 15.7247 -0.544031 -29.524 14.3236 -0.691558 -27.2842 13.1586 -0.817208 -24.9759 12.2338 -0.923849 -22.5276 11.5701 -1.01391 -2.24162 -1.53994 0.320814 -7.07578 2.78037 0.258503 -11.7898 6.78985 0.206354 -16.4446 10.5616 0.162404 -21.1041 14.1618 0.125156 -25.8374 17.653 0.0934477 -30.723 21.0979 0.0663627 -35.853 24.563 0.0431694 -33.5812 22.3784 -0.107807 -31.3958 20.4285 -0.236273 -29.2781 18.6897 -0.345437 -27.2056 17.1437 -0.437965 -25.1497 15.7779 -0.516093 -23.0715 14.5861 -0.581708 -20.9138 13.5705 -0.636414 -1.18005 -0.710731 0.156906 -5.92086 3.78007 0.126476 -10.4915 8.0044 0.100963 -14.9559 12.0324 0.0794379 -19.3786 15.9301 0.0611868 -23.8277 19.7623 0.0456516 -28.3785 23.5967 0.0323901 -33.1178 27.5074 0.0210471 -30.8863 25.3187 -0.0524957 -28.7724 23.3206 -0.114893 -26.7572 21.4913 -0.167722 -24.8201 19.812 -0.212302 -22.9368 18.2662 -0.249738 -21.0767 16.8387 -0.280967 -19.1968 15.5155 -0.306789 -0.198057 0.198057 8.43235e-12 -4.82625 4.82625 7.66469e-12 -9.23516 9.23516 6.83703e-12 -13.4919 13.4919 6.19322e-12 -17.6617 17.6617 5.65972e-12 -21.8114 21.8114 5.28463e-12 -26.0125 26.0125 4.75021e-12 -30.3462 30.3462 4.27596e-12 -28.1419 28.1419 9.91793e-12 -26.0897 26.0897 1.45632e-11 -24.1694 24.1694 1.84528e-11 -22.3617 22.3617 2.19406e-11 -20.646 20.646 2.44925e-11 -18.9997 18.9997 2.67504e-11 -17.3938 17.3938 2.90676e-11 0.710731 1.18005 -0.156906 -3.78007 5.92086 -0.126476 -8.0044 10.4915 -0.100963 -12.0324 14.9559 -0.0794379 -15.9301 19.3786 -0.0611868 -19.7623 23.8277 -0.0456516 -23.5967 28.3785 -0.0323901 -27.5074 33.1178 -0.0210471 -25.3187 30.8863 0.0524957 -23.3206 28.7724 0.114893 -21.4913 26.7572 0.167722 -19.812 24.8201 0.212302 -18.2662 22.9368 0.249738 -16.8387 21.0767 0.280967 -15.5155 19.1968 0.306789 1.53994 2.24162 -0.320814 -2.78037 7.07578 -0.258503 -6.78985 11.7898 -0.206354 -10.5616 16.4446 -0.162404 -14.1618 21.1041 -0.125156 -17.653 25.8374 -0.0934477 -21.0979 30.723 -0.0663627 -24.563 35.853 -0.0431694 -22.3784 33.5812 0.107807 -20.4285 31.3958 0.236273 -18.6897 29.2781 0.345437 -17.1437 27.2056 0.437965 -15.7779 25.1497 0.516093 -14.5861 23.0715 0.581708 -13.5705 20.9138 0.636414 2.26898 3.40336 -0.499805 -1.83551 8.3145 -0.402398 -5.58892 13.1552 -0.321153 -9.06702 17.9839 -0.25283 -12.3354 22.8639 -0.194986 -15.4536 27.8656 -0.145747 -18.4784 33.0701 -0.103651 -21.4677 38.5741 -0.0675416 -19.2752 36.2455 0.169004 -17.3695 33.9751 0.371211 -15.7247 31.743 0.544031 -14.3236 29.524 0.691558 -13.1586 27.2842 0.817208 -12.2338 24.9759 0.923849 -11.5701 22.5276 1.01391 2.85795 4.70518 -0.704498 -0.967016 9.67655 -0.566243 -4.407 14.6252 -0.451597 -7.53981 19.608 -0.355552 -10.4296 24.6881 -0.274409 -13.1317 29.9371 -0.205379 -15.696 35.4386 -0.146319 -18.1699 41.2931 -0.0955532 -15.9573 38.8853 0.239705 -14.0942 36.5107 0.52802 -12.5526 34.147 0.776301 -11.3171 31.7648 0.990215 -10.3868 29.3243 1.17445 -9.77844 26.7682 1.33293 -9.53529 24.0109 1.46895 3.23631 6.2176 -0.950472 -0.215971 11.2266 -0.761482 -3.26061 16.2568 -0.606252 -5.97613 21.3647 -0.47705 -8.42358 26.6142 -0.368328 -10.6522 32.078 -0.276002 -12.7032 37.8419 -0.196998 -14.6124 44.0094 -0.128961 -12.3683 41.4905 0.324457 -10.5508 38.9844 0.717101 -9.12989 36.4647 1.05822 -8.09343 33.897 1.35531 -7.44908 31.234 1.61451 -7.22971 28.409 1.84091 -7.50489 25.3231 2.03875 3.2787 8.06599 -1.26301 0.343473 13.0728 -1.00585 -2.18421 18.1396 -0.797892 -4.37955 23.3244 -0.626682 -6.29685 28.6923 -0.483636 -7.97621 34.3175 -0.362647 -9.4476 40.2869 -0.259252 -10.7334 46.7056 -0.170112 -8.44984 44.0296 0.429268 -6.68898 41.3536 0.952106 -5.41913 38.6453 1.41065 -4.63273 35.8633 1.81469 -4.34881 32.9526 2.17212 -4.61993 29.8375 2.48941 -5.54641 26.4079 2.77189 2.74932 10.4862 -1.68762 0.574953 15.4057 -1.32943 -1.24407 20.4226 -1.04715 -2.76664 25.5971 -0.818952 -4.0309 30.9951 -0.630661 -5.06118 36.6911 -0.472647 -5.87154 42.7719 -0.338151 -6.46757 49.3413 -0.222286 -4.14485 46.4421 0.562424 -2.46581 43.543 1.25166 -1.39687 40.6031 1.86184 -0.936592 37.5727 2.40583 -1.11823 34.3886 2.89385 -2.01782 30.9669 3.33412 -3.77062 27.1903 3.73331 160.073 7.43019 3.20429 174.337 8.06391 2.26233 188.485 8.1997 1.71131 202.649 8.19914 1.38648 216.961 8.29766 1.19777 231.565 8.6607 1.09772 246.611 9.41472 1.06462 262.267 10.6658 1.09314 281.259 10.3776 2.06452 301.287 9.30357 2.59269 322.627 7.73947 2.70051 345.611 5.91846 2.40921 370.64 4.03214 1.7366 398.207 2.24646 0.695495 428.934 0.714903 -0.707828 147.836 -4.2616 0.970705 162.855 -7.30575 0.553649 177.526 -10.1891 0.350285 192.004 -12.7866 0.265397 206.442 -15.0146 0.247718 220.993 -16.813 0.272525 235.818 -18.1339 0.331831 251.088 -18.9345 0.428746 272.45 -22.343 1.17404 294.539 -26.04 1.58057 317.68 -29.8525 1.67499 342.243 -33.6452 1.48472 368.67 -37.3081 1.03651 397.498 -40.7475 0.355599 429.398 -43.8777 -0.534927 136.414 -16.7688 -0.20543 151.659 -22.5576 -0.354034 166.419 -27.8312 -0.380775 180.85 -32.5804 -0.345623 195.103 -36.8052 -0.279718 209.332 -40.5097 -0.196127 223.696 -43.699 -0.096182 238.364 -46.3767 0.0267497 260.995 -52.8732 0.588096 284.107 -59.3323 0.894288 308.044 -65.6836 0.972616 333.196 -71.8817 0.852206 360.024 -77.9004 0.563038 389.086 -83.7294 0.135522 421.082 -89.3718 -0.399472 125.292 -29.576 -0.730181 140.448 -37.4932 -0.747227 155.021 -44.7026 -0.693579 169.16 -51.2561 -0.60866 183.011 -57.2025 -0.512051 196.723 -62.5875 -0.410582 210.451 -67.4533 -0.302649 224.358 -71.8391 -0.180827 247.391 -81.2928 0.23032 270.701 -90.5116 0.454154 294.632 -99.5121 0.515823 319.578 -108.331 0.442617 346.001 -117.025 0.263298 374.463 -125.672 0.00798134 405.672 -134.38 -0.291474 114.184 -42.3971 -0.84061 129.039 -52.007 -0.803871 143.231 -60.8101 -0.726498 156.901 -68.8918 -0.634336 170.191 -76.3312 -0.539679 183.243 -83.202 -0.445974 196.204 -89.5737 -0.350737 209.23 -95.5134 -0.247356 231.983 -107.732 0.0394805 254.835 -119.613 0.195204 278.122 -131.248 0.240599 302.228 -142.748 0.198389 327.601 -154.25 0.0928112 354.79 -165.923 -0.0503374 384.49 -177.982 -0.203187 102.924 -55.0658 -0.688557 117.315 -66.0456 -0.643322 130.974 -76.1769 -0.576013 144.038 -85.565 -0.502415 156.641 -94.3083 -0.429783 168.92 -102.5 -0.359734 181.012 -110.231 -0.290082 193.065 -117.59 -0.215978 214.99 -132.339 -0.0347754 236.861 -146.721 0.0633332 258.997 -160.89 0.0931091 281.758 -175.023 0.0707485 305.568 -189.333 0.0136352 330.946 -204.076 -0.0595652 358.55 -219.579 -0.12845 91.4151 -67.486 -0.380678 105.196 -79.5871 -0.352327 118.19 -90.836 -0.314296 130.526 -101.35 -0.2741 142.334 -111.24 -0.235113 153.741 -120.615 -0.19796 164.878 -129.581 -0.161404 175.879 -138.245 -0.122897 196.528 -155.264 -0.0352548 216.997 -171.938 0.0121057 237.575 -188.477 0.0268344 258.591 -205.116 0.0173376 280.432 -222.134 -0.00733461 303.571 -239.873 -0.0374211 328.608 -258.761 -0.0621872 79.6077 -79.6077 4.51195e-12 92.6316 -92.6316 6.74924e-12 104.826 -104.826 8.38221e-12 116.316 -116.316 9.48419e-12 127.222 -127.222 1.03588e-11 137.664 -137.664 1.09281e-11 147.76 -147.76 1.11235e-11 157.634 -157.634 1.1152e-11 176.631 -176.631 1.301e-11 195.349 -195.349 1.42037e-11 214.041 -214.041 1.50919e-11 232.994 -232.994 1.54472e-11 252.547 -252.547 1.54827e-11 273.111 -273.111 1.54294e-11 295.211 -295.211 1.49479e-11 67.486 -91.4151 0.380678 79.5871 -105.196 0.352327 90.836 -118.19 0.314296 101.35 -130.526 0.2741 111.24 -142.334 0.235113 120.615 -153.741 0.19796 129.581 -164.878 0.161404 138.245 -175.879 0.122897 155.264 -196.528 0.0352548 171.938 -216.997 -0.0121057 188.477 -237.575 -0.0268344 205.116 -258.591 -0.0173376 222.134 -280.432 0.00733461 239.873 -303.571 0.0374211 258.761 -328.608 0.0621872 55.0658 -102.924 0.688557 66.0456 -117.315 0.643322 76.1769 -130.974 0.576013 85.565 -144.038 0.502415 94.3083 -156.641 0.429783 102.5 -168.92 0.359734 110.231 -181.012 0.290082 117.59 -193.065 0.215978 132.339 -214.99 0.0347754 146.721 -236.861 -0.0633332 160.89 -258.997 -0.0931091 175.023 -281.758 -0.0707485 189.333 -305.568 -0.0136352 204.076 -330.946 0.0595652 219.579 -358.55 0.12845 42.3971 -114.184 0.84061 52.007 -129.039 0.803871 60.8101 -143.231 0.726498 68.8918 -156.901 0.634336 76.3312 -170.191 0.539679 83.202 -183.243 0.445974 89.5737 -196.204 0.350737 95.5134 -209.23 0.247356 107.732 -231.983 -0.0394805 119.613 -254.835 -0.195204 131.248 -278.122 -0.240599 142.748 -302.228 -0.198389 154.25 -327.601 -0.0928112 165.923 -354.79 0.0503374 177.982 -384.49 0.203187 29.576 -125.292 0.730181 37.4932 -140.448 0.747227 44.7026 -155.021 0.693579 51.2561 -169.16 0.60866 57.2025 -183.011 0.512051 62.5875 -196.723 0.410582 67.4533 -210.451 0.302649 71.8391 -224.358 0.180827 81.2928 -247.391 -0.23032 90.5116 -270.701 -0.454154 99.5121 -294.632 -0.515823 108.331 -319.578 -0.442617 117.025 -346.001 -0.263298 125.672 -374.463 -0.00798134 134.38 -405.672 0.291474 16.7688 -136.414 0.20543 22.5576 -151.659 0.354034 27.8312 -166.419 0.380775 32.5804 -180.85 0.345623 36.8052 -195.103 0.279718 40.5097 -209.332 0.196127 43.699 -223.696 0.096182 46.3767 -238.364 -0.0267497 52.8732 -260.995 -0.588096 59.3323 -284.107 -0.894288 65.6836 -308.044 -0.972616 71.8817 -333.196 -0.852206 77.9004 -360.024 -0.563038 83.7294 -389.086 -0.135522 89.3718 -421.082 0.399472 4.2616 -147.836 -0.970705 7.30575 -162.855 -0.553649 10.1891 -177.526 -0.350285 12.7866 -192.004 -0.265397 15.0146 -206.442 -0.247718 16.813 -220.993 -0.272525 18.1339 -235.818 -0.331831 18.9345 -251.088 -0.428746 22.343 -272.45 -1.17404 26.04 -294.539 -1.58057 29.8525 -317.68 -1.67499 33.6452 -342.243 -1.48472 37.3081 -368.67 -1.03651 40.7475 -397.498 -0.355599 43.8777 -429.398 0.534927 -7.43019 -160.073 -3.20429 -8.06391 -174.337 -2.26233 -8.1997 -188.485 -1.71131 -8.19914 -202.649 -1.38648 -8.29766 -216.961 -1.19777 -8.6607 -231.565 -1.09772 -9.41472 -246.611 -1.06462 -10.6658 -262.267 -1.09314 -10.3776 -281.259 -2.06452 -9.30357 -301.287 -2.59269 -7.73947 -322.627 -2.70051 -5.91846 -345.611 -2.40921 -4.03214 -370.64 -1.7366 -2.24646 -398.207 -0.695495 -0.714903 -428.934 0.707828 306.603 10.9485 10.8034 345.36 10.6953 3.6991 383.533 7.62111 -0.0301164 421.238 3.6741 -2.01949 458.685 0.0886201 -3.13907 496.171 -2.27121 -3.85847 534.079 -2.7435 -4.41728 572.884 -0.772804 -4.91234 589.446 5.23071 2.59262 607.912 7.82578 7.21652 628.864 8.40432 9.11392 653.009 8.03728 8.39574 681.228 7.58914 5.1162 714.658 7.80702 -0.744712 754.811 9.39953 -9.30651 283.716 -11.5291 7.86567 323.428 -17.2299 2.259 361.954 -24.6758 -0.728774 399.415 -32.5263 -2.29556 435.969 -39.8679 -3.12015 471.834 -46.0347 -3.58703 507.288 -50.5127 -3.90029 542.674 -52.8812 -4.14618 567.152 -53.8803 1.85131 592.009 -56.7764 5.45656 617.838 -60.5313 6.84003 645.297 -64.3433 6.16389 675.142 -67.5693 3.57235 708.282 -69.6641 -0.817323 745.856 -70.1268 -6.92477 261.128 -34.3055 5.71491 300.964 -45.0767 1.31164 339.316 -56.7989 -1.06146 376.225 -68.5089 -2.28702 411.77 -79.5101 -2.89122 446.076 -89.2779 -3.18434 479.321 -97.4064 -3.33697 511.735 -103.572 -3.42448 542.007 -111.414 1.27923 571.373 -119.823 4.04284 600.356 -128.042 5.03537 629.502 -135.496 4.43652 659.406 -141.735 2.42826 690.748 -146.396 -0.811328 724.333 -149.164 -5.11272 238.67 -57.2125 4.08559 277.91 -72.7209 0.708859 315.56 -88.5762 -1.12671 351.562 -104.048 -2.06286 385.899 -118.584 -2.49785 418.606 -131.757 -2.67435 449.77 -143.238 -2.72974 479.526 -152.773 -2.72717 513.666 -167.119 0.849536 545.879 -180.872 2.90867 576.571 -193.496 3.60318 606.156 -204.592 3.10466 635.072 -213.865 1.59557 663.797 -221.093 -0.736064 692.866 -226.106 -3.70009 216.241 -80.1476 2.80564 254.239 -100.065 0.346654 290.671 -119.858 -0.998677 325.376 -138.938 -1.6783 358.25 -156.846 -1.97886 389.243 -173.226 -2.07949 418.363 -187.802 -2.08399 445.667 -200.371 -2.04158 481.915 -220.703 0.53501 515.49 -239.465 1.99336 546.669 -256.284 2.45857 575.736 -270.895 2.07499 602.989 -283.116 0.999457 628.744 -292.83 -0.603473 653.343 -299.965 -2.56469 193.776 -103.048 1.75527 229.949 -127.031 0.147419 264.663 -150.511 -0.736236 297.671 -172.989 -1.1797 328.79 -194.071 -1.36869 357.899 -213.448 -1.42136 384.94 -230.89 -1.40735 409.903 -246.227 -1.36045 446.654 -271.86 0.307743 480.265 -295.141 1.23987 510.888 -315.82 1.5243 538.694 -333.733 1.26454 563.867 -348.782 0.574144 586.603 -360.922 -0.427006 607.114 -370.145 -1.61532 171.239 -125.874 0.844552 205.053 -153.553 0.0494285 237.576 -180.416 -0.388742 268.489 -206.03 -0.607793 297.544 -230.047 -0.69903 324.564 -252.203 -0.721178 349.434 -272.3 -0.709199 372.094 -290.205 -0.680283 407.887 -320.287 0.13913 440.35 -347.45 0.593324 469.525 -371.545 0.727984 495.486 -392.488 0.597004 518.329 -410.246 0.25976 538.167 -424.826 -0.220945 555.128 -436.265 -0.780397 148.607 -148.607 8.64375e-12 179.575 -179.575 1.02995e-11 209.468 -209.468 1.13047e-11 237.907 -237.907 1.19957e-11 264.59 -264.59 1.23954e-11 289.294 -289.294 1.23848e-11 311.86 -311.86 1.22213e-11 332.187 -332.187 1.19371e-11 365.707 -365.707 1.37135e-11 395.976 -395.976 1.45945e-11 422.938 -422.938 1.50493e-11 446.584 -446.584 1.5234e-11 466.941 -466.941 1.50209e-11 484.065 -484.065 1.44098e-11 498.032 -498.032 1.36656e-11 125.874 -171.239 -0.844552 153.553 -205.053 -0.0494285 180.416 -237.576 0.388742 206.03 -268.489 0.607793 230.047 -297.544 0.69903 252.203 -324.564 0.721178 272.3 -349.434 0.709199 290.205 -372.094 0.680283 320.287 -407.887 -0.13913 347.45 -440.35 -0.593324 371.545 -469.525 -0.727984 392.488 -495.486 -0.597004 410.246 -518.329 -0.25976 424.826 -538.167 0.220945 436.265 -555.128 0.780397 103.048 -193.776 -1.75527 127.031 -229.949 -0.147419 150.511 -264.663 0.736236 172.989 -297.671 1.1797 194.071 -328.79 1.36869 213.448 -357.899 1.42136 230.89 -384.94 1.40735 246.227 -409.903 1.36045 271.86 -446.654 -0.307743 295.141 -480.265 -1.23987 315.82 -510.888 -1.5243 333.733 -538.694 -1.26454 348.782 -563.867 -0.574144 360.922 -586.603 0.427006 370.145 -607.114 1.61532 80.1476 -216.241 -2.80564 100.065 -254.239 -0.346654 119.858 -290.671 0.998677 138.938 -325.376 1.6783 156.846 -358.25 1.97886 173.226 -389.243 2.07949 187.802 -418.363 2.08399 200.371 -445.667 2.04158 220.703 -481.915 -0.53501 239.465 -515.49 -1.99336 256.284 -546.669 -2.45857 270.895 -575.736 -2.07499 283.116 -602.989 -0.999457 292.83 -628.744 0.603473 299.965 -653.343 2.56469 57.2125 -238.67 -4.08559 72.7209 -277.91 -0.708859 88.5762 -315.56 1.12671 104.048 -351.562 2.06286 118.584 -385.899 2.49785 131.757 -418.606 2.67435 143.238 -449.77 2.72974 152.773 -479.526 2.72717 167.119 -513.666 -0.849536 180.872 -545.879 -2.90867 193.496 -576.571 -3.60318 204.592 -606.156 -3.10466 213.865 -635.072 -1.59557 221.093 -663.797 0.736064 226.106 -692.866 3.70009 34.3055 -261.128 -5.71491 45.0767 -300.964 -1.31164 56.7989 -339.316 1.06146 68.5089 -376.225 2.28702 79.5101 -411.77 2.89122 89.2779 -446.076 3.18434 97.4064 -479.321 3.33697 103.572 -511.735 3.42448 111.414 -542.007 -1.27923 119.823 -571.373 -4.04284 128.042 -600.356 -5.03537 135.496 -629.502 -4.43652 141.735 -659.406 -2.42826 146.396 -690.748 0.811328 149.164 -724.333 5.11272 11.5291 -283.716 -7.86567 17.2299 -323.428 -2.259 24.6758 -361.954 0.728774 32.5263 -399.415 2.29556 39.8679 -435.969 3.12015 46.0347 -471.834 3.58703 50.5127 -507.288 3.90029 52.8812 -542.674 4.14618 53.8803 -567.152 -1.85131 56.7764 -592.009 -5.45656 60.5313 -617.838 -6.84003 64.3433 -645.297 -6.16389 67.5693 -675.142 -3.57235 69.6641 -708.282 0.817323 70.1268 -745.856 6.92477 -10.9485 -306.603 -10.8034 -10.6953 -345.36 -3.6991 -7.62111 -383.533 0.0301164 -3.6741 -421.238 2.01949 -0.0886201 -458.685 3.13907 2.27121 -496.171 3.85847 2.7435 -534.079 4.41728 0.772804 -572.884 4.91234 -5.23071 -589.446 -2.59262 -7.82578 -607.912 -7.21652 -8.40432 -628.864 -9.11392 -8.03728 -653.009 -8.39574 -7.58914 -681.228 -5.1162 -7.80702 -714.658 0.744712 -9.39953 -754.811 9.30651 372.078 -18.745 13.3126 409.443 -0.813968 4.21849 447.635 5.95845 -0.0184918 486.857 7.01008 -1.90114 527.324 5.44095 -2.72806 569.271 3.22574 -3.2015 612.953 1.75702 -3.6959 658.655 2.1169 -4.38805 676.73 8.45386 5.07169 696.571 11.7693 10.9849 718.372 13.2443 13.4856 742.362 13.805 12.6538 768.815 14.2124 8.5216 798.058 15.1256 1.0753 830.483 17.1489 -9.74625 339.064 -36.2073 10.0216 379.954 -30.2138 2.70386 420.061 -31.5334 -0.868872 459.92 -36.6557 -2.53117 499.922 -43.4486 -3.28793 540.398 -50.4949 -3.7023 581.665 -56.7726 -4.08056 624.054 -61.4849 -4.56755 648.161 -61.5775 3.00804 673.398 -63.4863 7.68842 700.193 -66.2893 9.64113 729.033 -69.2517 9.0093 760.495 -71.76 5.91073 795.288 -73.2724 0.434242 834.31 -73.2768 -7.36703 308.411 -56.0309 7.51094 350.998 -59.8689 1.6824 391.952 -68.3394 -1.2701 431.86 -79.1419 -2.69511 471.141 -90.8078 -3.36295 510.137 -102.33 -3.71778 549.172 -112.976 -4.00539 588.585 -122.179 -4.34263 616.766 -128.331 1.6185 645.461 -135.364 5.26388 675.237 -142.619 6.7673 706.745 -149.59 6.29559 740.782 -155.874 4.00433 778.357 -161.141 0.0320797 820.804 -165.105 -5.5077 279.39 -77.4861 5.52053 322.301 -89.5884 1.00586 363.193 -104.395 -1.34692 402.58 -120.39 -2.51511 440.826 -136.567 -3.07511 478.238 -152.222 -3.36679 515.109 -166.847 -3.58096 551.757 -180.063 -3.809 582.365 -191.812 0.741561 612.937 -203.717 3.50045 644.1 -215.378 4.62754 676.599 -226.525 4.28496 711.363 -237.003 2.63161 749.612 -246.756 -0.182801 793.008 -255.83 -4.02496 251.554 -100.126 3.88024 293.681 -119.25 0.56986 333.709 -139.658 -1.19199 372.015 -160.357 -2.08533 408.874 -180.669 -2.52082 444.527 -200.122 -2.74477 479.215 -218.382 -2.89703 513.216 -235.22 -3.04504 544.849 -252.023 0.245736 575.991 -268.439 2.22723 607.273 -284.301 3.03082 639.465 -299.578 2.79375 673.557 -314.368 1.65389 710.874 -328.924 -0.255306 753.279 -343.69 -2.81032 224.624 -123.672 2.47078 265.019 -148.778 0.29653 303.445 -174.099 -0.877533 340.124 -199.009 -1.48149 375.22 -223.074 -1.77934 408.888 -245.994 -1.93131 441.308 -267.578 -2.02913 472.704 -287.721 -2.1173 504.15 -308.967 0.0201726 534.771 -329.443 1.30083 565.152 -349.192 1.81752 596.032 -368.401 1.6688 628.388 -387.417 0.955032 663.556 -406.803 -0.225287 703.448 -427.424 -1.77903 198.431 -147.955 1.20202 236.234 -178.127 0.124095 272.369 -207.702 -0.462927 306.885 -236.324 -0.767457 339.823 -263.746 -0.918663 371.249 -289.812 -0.995485 401.263 -314.443 -1.04335 430.027 -337.636 -1.08437 460.229 -362.647 -0.0322031 489.405 -386.655 0.5963 518.054 -409.887 0.849091 546.835 -432.722 0.777511 576.647 -455.731 0.434166 608.74 -479.762 -0.128929 644.934 -506.077 -0.862072 172.884 -172.884 4.01545e-12 207.278 -207.278 6.81645e-12 240.458 -240.458 8.77987e-12 272.285 -272.285 1.01137e-11 302.667 -302.667 1.08704e-11 331.563 -331.563 1.12568e-11 358.993 -358.993 1.16316e-11 385.042 -385.042 1.15854e-11 413.066 -413.066 1.31131e-11 440.002 -440.002 1.3717e-11 466.231 -466.231 1.38378e-11 492.29 -492.29 1.35785e-11 518.938 -518.938 1.28892e-11 547.258 -547.258 1.17542e-11 578.845 -578.845 1.02335e-11 147.955 -198.431 -1.20202 178.127 -236.234 -0.124095 207.702 -272.369 0.462927 236.324 -306.885 0.767457 263.746 -339.823 0.918663 289.812 -371.249 0.995485 314.443 -401.263 1.04335 337.636 -430.027 1.08437 362.647 -460.229 0.0322031 386.655 -489.405 -0.5963 409.887 -518.054 -0.849091 432.722 -546.835 -0.777511 455.731 -576.647 -0.434166 479.762 -608.74 0.128929 506.077 -644.934 0.862072 123.672 -224.624 -2.47078 148.778 -265.019 -0.29653 174.099 -303.445 0.877533 199.009 -340.124 1.48149 223.074 -375.22 1.77934 245.994 -408.888 1.93131 267.578 -441.308 2.02913 287.721 -472.704 2.1173 308.967 -504.15 -0.0201726 329.443 -534.771 -1.30083 349.192 -565.152 -1.81752 368.401 -596.032 -1.6688 387.417 -628.388 -0.955032 406.803 -663.556 0.225287 427.424 -703.448 1.77903 100.126 -251.554 -3.88024 119.25 -293.681 -0.56986 139.658 -333.709 1.19199 160.357 -372.015 2.08533 180.669 -408.874 2.52082 200.122 -444.527 2.74477 218.382 -479.215 2.89703 235.22 -513.216 3.04504 252.023 -544.849 -0.245736 268.439 -575.991 -2.22723 284.301 -607.273 -3.03082 299.578 -639.465 -2.79375 314.368 -673.557 -1.65389 328.924 -710.874 0.255306 343.69 -753.279 2.81032 77.4861 -279.39 -5.52053 89.5884 -322.301 -1.00586 104.395 -363.193 1.34692 120.39 -402.58 2.51511 136.567 -440.826 3.07511 152.222 -478.238 3.36679 166.847 -515.109 3.58096 180.063 -551.757 3.809 191.812 -582.365 -0.741561 203.717 -612.937 -3.50045 215.378 -644.1 -4.62754 226.525 -676.599 -4.28496 237.003 -711.363 -2.63161 246.756 -749.612 0.182801 255.83 -793.008 4.02496 56.0309 -308.411 -7.51094 59.8689 -350.998 -1.6824 68.3394 -391.952 1.2701 79.1419 -431.86 2.69511 90.8078 -471.141 3.36295 102.33 -510.137 3.71778 112.976 -549.172 4.00539 122.179 -588.585 4.34263 128.331 -616.766 -1.6185 135.364 -645.461 -5.26388 142.619 -675.237 -6.7673 149.59 -706.745 -6.29559 155.874 -740.782 -4.00433 161.141 -778.357 -0.0320797 165.105 -820.804 5.5077 36.2073 -339.064 -10.0216 30.2138 -379.954 -2.70386 31.5334 -420.061 0.868872 36.6557 -459.92 2.53117 43.4486 -499.922 3.28793 50.4949 -540.398 3.7023 56.7726 -581.665 4.08056 61.4849 -624.054 4.56755 61.5775 -648.161 -3.00804 63.4863 -673.398 -7.68842 66.2893 -700.193 -9.64113 69.2517 -729.033 -9.0093 71.76 -760.495 -5.91073 73.2724 -795.288 -0.434242 73.2768 -834.31 7.36703 18.745 -372.078 -13.3126 0.813968 -409.443 -4.21849 -5.95845 -447.635 0.0184918 -7.01008 -486.857 1.90114 -5.44095 -527.324 2.72806 -3.22574 -569.271 3.2015 -1.75702 -612.953 3.6959 -2.1169 -658.655 4.38805 -8.45386 -676.73 -5.07169 -11.7693 -696.571 -10.9849 -13.2443 -718.372 -13.4856 -13.805 -742.362 -12.6538 -14.2124 -768.815 -8.5216 -15.1256 -798.058 -1.0753 -17.1489 -830.483 9.74625 407.677 -25.0472 16.055 451.05 -3.57823 4.65655 495.117 4.49842 -0.464949 540.056 5.82229 -2.61414 586.05 4.10193 -3.46859 633.295 1.66355 -3.91803 682 0.124456 -4.42565 732.392 0.721157 -5.20018 751.826 7.46763 5.98527 772.705 11.0317 12.8439 795.168 12.7761 15.6017 819.372 13.7661 14.4302 845.499 14.8716 9.45757 873.757 16.8378 0.775418 904.391 20.3348 -11.5569 371.024 -43.0553 12.2876 418.525 -35.5737 3.05956 464.884 -36.8756 -1.30762 510.687 -42.6585 -3.2487 556.334 -50.3567 -4.06993 602.142 -58.2872 -4.48972 648.404 -65.2512 -4.88996 695.411 -70.3267 -5.44355 721.424 -70.4451 3.54359 748.156 -72.3972 8.99224 775.992 -75.1108 11.1559 805.354 -77.7344 10.2644 836.722 -79.5618 6.52621 870.668 -79.9759 0.127179 907.89 -78.4035 -8.77191 337.141 -63.8339 9.34542 386.62 -67.8677 1.96396 434.004 -77.4686 -1.6743 479.951 -89.8054 -3.36528 524.901 -103.099 -4.11464 569.193 -116.141 -4.49179 613.135 -128.061 -4.805 657.038 -138.191 -5.19488 687.53 -144.831 1.89567 718.056 -152.239 6.15192 749.149 -159.636 7.82402 781.404 -166.416 7.15696 815.522 -172.095 4.38745 852.367 -176.268 -0.260313 893.039 -178.578 -6.58 305.195 -86.5489 6.95564 355.037 -100.258 1.22115 402.371 -117.221 -1.69491 447.77 -135.56 -3.09699 491.619 -154.046 -3.73986 534.221 -171.825 -4.0608 575.855 -188.28 -4.3001 616.82 -202.953 -4.56839 650.005 -215.653 0.855529 682.624 -228.282 4.08415 715.279 -240.342 5.34142 748.663 -251.482 4.85569 783.619 -261.472 2.85442 821.217 -270.176 -0.44113 862.868 -277.548 -4.82131 274.671 -110.687 4.93883 323.577 -132.614 0.725478 369.913 -156.09 -1.46703 414.095 -179.876 -2.5477 456.405 -203.134 -3.05542 497.073 -225.277 -3.30785 536.327 -245.887 -3.48162 574.426 -264.673 -3.65875 608.771 -282.872 0.269703 642.066 -300.356 2.59256 674.919 -316.883 3.49098 708.057 -332.354 3.15396 742.387 -346.796 1.77287 779.09 -360.377 -0.463481 819.773 -373.418 -3.37309 245.249 -135.926 3.16844 292.109 -164.855 0.397492 336.581 -194.05 -1.06746 378.895 -222.718 -1.80184 419.205 -250.311 -2.15257 457.65 -276.444 -2.32659 494.387 -300.86 -2.44001 529.619 -323.405 -2.54708 563.791 -346.453 0.00733772 596.568 -368.319 1.51042 628.515 -388.99 2.08898 660.331 -408.594 1.87708 692.914 -427.411 1.01168 727.465 -445.909 -0.370994 765.648 -464.8 -2.13829 216.734 -162.072 1.54851 260.544 -196.933 0.173743 302.343 -231.082 -0.559835 342.156 -264.058 -0.931218 379.996 -295.533 -1.11026 415.893 -325.286 -1.19902 449.924 -353.189 -1.25506 482.224 -379.2 -1.30538 515.055 -406.364 -0.0471697 546.301 -432.046 0.691012 576.437 -456.431 0.974339 606.082 -479.847 0.872185 636.062 -502.801 0.455744 667.501 -526.033 -0.203867 701.987 -550.625 -1.03702 189.019 -189.019 1.35447e-12 228.828 -228.828 4.81182e-12 267.18 -267.18 7.23399e-12 303.875 -303.875 8.88534e-12 338.769 -338.769 1.0159e-11 371.774 -371.774 1.06404e-11 402.871 -402.871 1.11271e-11 432.116 -432.116 1.13687e-11 462.573 -462.573 1.2399e-11 491.415 -491.415 1.29674e-11 518.989 -518.989 1.31095e-11 545.79 -545.79 1.26121e-11 572.508 -572.508 1.18661e-11 600.111 -600.111 1.07256e-11 629.983 -629.983 9.31562e-12 162.072 -216.734 -1.54851 196.933 -260.544 -0.173743 231.082 -302.343 0.559835 264.058 -342.156 0.931218 295.533 -379.996 1.11026 325.286 -415.893 1.19902 353.189 -449.924 1.25506 379.2 -482.224 1.30538 406.364 -515.055 0.0471697 432.046 -546.301 -0.691012 456.431 -576.437 -0.974339 479.847 -606.082 -0.872185 502.801 -636.062 -0.455744 526.033 -667.501 0.203867 550.625 -701.987 1.03702 135.926 -245.249 -3.16844 164.855 -292.109 -0.397492 194.05 -336.581 1.06746 222.718 -378.895 1.80184 250.311 -419.205 2.15257 276.444 -457.65 2.32659 300.86 -494.387 2.44001 323.405 -529.619 2.54708 346.453 -563.791 -0.00733772 368.319 -596.568 -1.51042 388.99 -628.515 -2.08898 408.594 -660.331 -1.87708 427.411 -692.914 -1.01168 445.909 -727.465 0.370994 464.8 -765.648 2.13829 110.687 -274.671 -4.93883 132.614 -323.577 -0.725478 156.09 -369.913 1.46703 179.876 -414.095 2.5477 203.134 -456.405 3.05542 225.277 -497.073 3.30785 245.887 -536.327 3.48162 264.673 -574.426 3.65875 282.872 -608.771 -0.269703 300.356 -642.066 -2.59256 316.883 -674.919 -3.49098 332.354 -708.057 -3.15396 346.796 -742.387 -1.77287 360.377 -779.09 0.463481 373.418 -819.773 3.37309 86.5489 -305.195 -6.95564 100.258 -355.037 -1.22115 117.221 -402.371 1.69491 135.56 -447.77 3.09699 154.046 -491.619 3.73986 171.825 -534.221 4.0608 188.28 -575.855 4.3001 202.953 -616.82 4.56839 215.653 -650.005 -0.855529 228.282 -682.624 -4.08415 240.342 -715.279 -5.34142 251.482 -748.663 -4.85569 261.472 -783.619 -2.85442 270.176 -821.217 0.44113 277.548 -862.868 4.82131 63.8339 -337.141 -9.34542 67.8677 -386.62 -1.96396 77.4686 -434.004 1.6743 89.8054 -479.951 3.36528 103.099 -524.901 4.11464 116.141 -569.193 4.49179 128.061 -613.135 4.805 138.191 -657.038 5.19488 144.831 -687.53 -1.89567 152.239 -718.056 -6.15192 159.636 -749.149 -7.82402 166.416 -781.404 -7.15696 172.095 -815.522 -4.38745 176.268 -852.367 0.260313 178.578 -893.039 6.58 43.0553 -371.024 -12.2876 35.5737 -418.525 -3.05956 36.8756 -464.884 1.30762 42.6585 -510.687 3.2487 50.3567 -556.334 4.06993 58.2872 -602.142 4.48972 65.2512 -648.404 4.88996 70.3267 -695.411 5.44355 70.4451 -721.424 -3.54359 72.3972 -748.156 -8.99224 75.1108 -775.992 -11.1559 77.7344 -805.354 -10.2644 79.5618 -836.722 -6.52621 79.9759 -870.668 -0.127179 78.4035 -907.89 8.77191 25.0472 -407.677 -16.055 3.57823 -451.05 -4.65655 -4.49842 -495.117 0.464949 -5.82229 -540.056 2.61414 -4.10193 -586.05 3.46859 -1.66355 -633.295 3.91803 -0.124456 -682 4.42565 -0.721157 -732.392 5.20018 -7.46763 -751.826 -5.98527 -11.0317 -772.705 -12.8439 -12.7761 -795.168 -15.6017 -13.7661 -819.372 -14.4302 -14.8716 -845.499 -9.45757 -16.8378 -873.757 -0.775418 -20.3348 -904.391 11.5569 439.525 -27.5976 19.1703 488.257 -2.86378 5.29148 537.529 6.26603 -0.75653 587.481 7.6581 -3.17388 638.258 5.6166 -4.04816 690.007 2.80009 -4.46696 742.889 1.03134 -4.98476 797.07 1.68243 -5.84162 817.279 8.5091 7.02836 838.58 12.0129 14.785 861.063 13.7186 17.7592 884.824 14.8101 16.2256 909.975 16.2443 10.4177 936.639 18.8282 0.539924 964.954 23.2712 -13.2258 399.953 -46.8725 14.8583 453.388 -37.9327 3.57622 505.309 -39.2652 -1.62235 556.348 -45.7452 -3.84435 606.905 -54.3735 -4.72342 657.28 -63.2105 -5.14257 707.729 -70.8912 -5.56192 758.505 -76.3803 -6.18214 785.8 -76.7037 4