<?xml version="1.0"?> 
<VTKFile type="StructuredGrid" version="0.1"> 
<StructuredGrid WholeExtent="0 29 0 29 0 29"> 
<Piece Extent="0 29 0 29 0 29"> 
<PointData>
<DataArray type="Float32" Name="hfield" format="ascii" NumberOfComponents="3"> 
136.107 -4174.52 0 17.8531 -4242.38 7.64625e-16 -73.8977 -4310.24 5.81331e-15 -144.255 -4378.09 6.9331e-15 -197.161 -4445.95 1.06204e-14 -235.702 -4513.81 1.01989e-14 -262.331 -4581.66 7.36557e-15 -279.024 -4649.52 9.47953e-15 -287.387 -4717.38 4.58504e-15 -288.74 -4785.23 8.88815e-15 -284.179 -4853.09 8.63024e-15 -274.621 -4920.95 1.25901e-14 -260.839 -4988.8 4.08758e-15 -243.488 -5056.66 7.97341e-15 -223.129 -5124.51 1.55727e-14 -218.383 -5135.78 1.50589e-14 -227.31 -5090.46 7.20981e-15 -231.389 -5045.13 1.38223e-14 -230.984 -4999.8 1.3263e-14 -226.412 -4954.48 6.36904e-15 -217.952 -4909.15 6.12227e-15 -205.852 -4863.83 1.76694e-14 -190.332 -4818.5 5.67046e-15 -171.586 -4773.18 1.09263e-14 -149.79 -4727.85 1.05337e-14 -125.098 -4682.53 1.01616e-14 -97.6531 -4637.2 9.80835e-15 -67.5805 -4591.88 9.47253e-15 -34.9949 -4546.55 9.15291e-15 -2.83147e-13 -4501.23 8.84834e-15 256.984 -4016.89 5.55879e-16 174.658 -4100.68 5.37698e-16 112.527 -4183.04 1.86611e-15 66.8225 -4264.2 -7.94561e-16 34.5869 -4344.33 -2.01456e-15 13.4641 -4423.57 0 1.55546 -4502.04 4.41139e-16 -2.68637 -4579.84 9.4804e-15 -0.534725 -4657.03 4.80372e-15 6.953 -4733.67 -4.66709e-15 18.8916 -4809.84 0 34.5345 -4885.56 -8.50062e-15 53.2477 -4960.87 3.66941e-15 74.4895 -5035.81 7.80698e-15 97.7943 -5110.41 0 102.587 -5128.2 -7.67379e-15 90.8752 -5089.29 -7.35626e-15 83.2647 -5050.23 -2.17422e-16 79.4393 -5011.04 -3.95812e-16 79.1197 -4971.73 6.1551e-15 82.0587 -4932.31 -1.25247e-14 88.0368 -4892.81 -6.16667e-15 96.8581 -4853.24 -1.16019e-14 108.347 -4813.59 -1.04652e-16 122.347 -4773.89 -1.60678e-14 138.717 -4734.14 -1.04523e-14 157.328 -4694.35 -9.96319e-15 178.065 -4654.53 -9.66269e-15 200.824 -4614.68 -1.86352e-14 225.508 -4574.8 -1.80078e-14 387.881 -3869.28 3.89405e-15 335.562 -3965.02 6.38716e-15 298.64 -4058.44 5.60311e-15 274.289 -4149.86 5.4165e-15 260.255 -4239.56 9.62922e-15 254.72 -4327.75 1.16183e-14 256.199 -4414.61 1.12699e-14 263.473 -4500.29 1.5288e-14 275.527 -4584.9 1.48713e-14 291.511 -4668.55 5.5034e-15 310.709 -4751.32 9.40212e-15 332.512 -4833.29 5.18789e-15 356.402 -4914.52 4.46894e-15 381.932 -4995.06 2.02039e-14 408.716 -5074.96 1.60326e-14 414.246 -5098.05 1.5538e-14 400.565 -5064.55 7.03156e-15 390.327 -5030.77 6.77043e-15 383.257 -4996.76 6.52492e-15 379.111 -4962.53 1.2269e-14 377.672 -4928.11 -5.69227e-16 378.747 -4893.52 1.14876e-14 382.164 -4858.78 5.45587e-15 387.767 -4823.92 5.30339e-15 395.416 -4788.95 -5.62244e-15 404.984 -4753.88 -2.45214e-16 416.358 -4718.72 4.89743e-15 429.433 -4683.49 -1.21216e-16 444.115 -4648.2 4.63357e-15 460.317 -4612.87 0 525.709 -3728.59 3.41153e-15 498.793 -3833.29 3.70816e-15 483.555 -3935.09 6.39184e-15 477.847 -4034.38 3.85949e-15 479.932 -4131.46 6.74061e-15 488.394 -4226.6 6.54799e-15 502.068 -4320 6.36133e-15 519.984 -4411.83 5.51655e-15 541.331 -4502.23 6.32721e-16 565.428 -4591.34 9.85798e-15 591.693 -4679.26 5.663e-15 619.632 -4766.07 0 648.821 -4851.85 8.65135e-15 678.893 -4936.67 1.17506e-14 709.533 -5020.6 4.14222e-15 716.319 -5047.9 0 701.314 -5018.92 6.94848e-15 689.171 -4989.57 7.04627e-15 679.651 -4959.88 0 672.546 -4929.89 6.25079e-15 667.666 -4899.63 6.04377e-15 664.843 -4869.14 5.84783e-15 663.926 -4838.44 -3.87429e-16 664.779 -4807.56 -4.94772e-16 667.278 -4776.51 -4.09586e-16 671.313 -4745.31 -1.06436e-14 676.783 -4713.99 9.9336e-15 683.594 -4682.56 -2.14287e-16 691.665 -4651.03 4.67108e-15 700.916 -4619.42 -4.5923e-15 668.231 -3592.6 5.96863e-15 663.052 -3703.92 5.79829e-15 666.624 -3811.99 9.01534e-15 677.296 -3917.2 7.39502e-15 693.72 -4019.89 1.06545e-14 714.787 -4120.31 1.14048e-14 739.576 -4218.68 7.79785e-15 767.318 -4315.19 1.36472e-14 797.365 -4410 1.13235e-14 829.167 -4503.24 1.10312e-14 862.255 -4595.02 1.07436e-14 896.23 -4685.45 1.42633e-14 930.746 -4774.6 1.393e-14 965.505 -4862.56 1.27661e-14 1000.25 -4949.38 1.61516e-14 1008.68 -4979.95 1.06783e-14 992.849 -4954.7 1.03057e-14 979.371 -4928.99 1.32729e-14 968.041 -4902.87 6.41559e-15 958.677 -4876.39 6.20681e-15 951.118 -4849.57 6.00916e-15 945.219 -4822.46 1.16436e-14 940.849 -4795.08 5.6439e-15 937.89 -4767.46 -6.05662e-15 936.235 -4739.64 -5.55459e-15 935.788 -4711.62 5.16061e-15 936.46 -4683.43 4.72962e-15 938.172 -4655.09 -9.93806e-15 940.849 -4626.62 4.69452e-15 944.426 -4598.03 4.61366e-15 813.793 -3459.65 3.90147e-15 827.374 -3575.74 7.43784e-15 847.371 -3688.36 6.54485e-15 872.505 -3797.92 2.24651e-15 901.728 -3904.71 6.43804e-15 934.168 -4009.01 6.28939e-15 969.097 -4111.04 1.99598e-15 1005.9 -4210.97 7.95958e-15 1044.07 -4308.98 7.78428e-15 1083.16 -4405.2 9.34673e-16 1122.8 -4499.75 1.48784e-14 1162.65 -4592.72 4.56736e-15 1202.45 -4684.21 1.26293e-14 1241.95 -4774.29 8.01963e-15 1280.95 -4863.04 7.88487e-15 1291.29 -4896.03 7.03493e-15 1275.03 -4873.81 6.79816e-15 1260.66 -4851.08 6.57465e-15 1248.03 -4827.87 3.18166e-15 1236.97 -4804.24 1.23264e-14 1227.35 -4780.22 1.87033e-14 1219.04 -4755.86 0 1211.94 -4731.19 5.32205e-15 1205.94 -4706.23 5.20374e-15 1200.95 -4681.01 5.09241e-15 1196.89 -4655.57 4.82015e-15 1193.68 -4629.91 4.88864e-15 1191.25 -4604.06 4.71291e-15 1189.55 -4578.04 4.66632e-15 1188.51 -4551.87 4.62394e-15 961.153 -3328.5 3.37915e-15 991.032 -3447.84 6.80238e-15 1025.44 -3563.61 8.4288e-15 1063.4 -3676.17 5.10423e-15 1104.07 -3785.82 5.99171e-15 1146.79 -3892.81 2.93556e-15 1190.97 -3997.35 7.68768e-15 1236.13 -4099.63 1.12516e-14 1281.86 -4199.8 1.89445e-15 1327.82 -4298 7.25063e-15 1373.7 -4394.34 7.10538e-15 1419.24 -4488.93 1.17321e-14 1464.22 -4581.85 1.15744e-14 1508.45 -4673.18 1.14194e-14 1551.77 -4762.98 7.71048e-15 1564.22 -4797.68 6.40585e-15 1547.81 -4777.89 2.85675e-15 1532.9 -4757.54 9.77601e-15 1519.36 -4736.67 6.314e-15 1507.05 -4715.34 9.18168e-15 1495.87 -4693.58 5.93791e-15 1485.69 -4671.43 -3.00488e-16 1476.44 -4648.93 1.09347e-14 1468.03 -4626.1 -2.21664e-16 1460.38 -4602.97 -3.66407e-16 1453.41 -4579.58 -1.45362e-16 1447.07 -4555.94 9.90432e-15 1441.3 -4532.07 -1.42998e-16 1436.05 -4508 -1.06375e-16 1431.27 -4483.74 4.62606e-15 1109.36 -3198.2 4.83198e-15 1153.47 -3319.53 2.38854e-15 1200.59 -3437.25 8.91657e-15 1249.93 -3551.68 4.63574e-15 1300.87 -3663.1 2.7943e-15 1352.87 -3771.76 4.4233e-15 1405.49 -3877.84 8.89574e-15 1458.35 -3981.52 7.93702e-15 1511.11 -4082.95 5.18821e-15 1563.52 -4182.26 4.38068e-15 1615.32 -4279.56 2.489e-15 1666.32 -4374.94 9.11352e-15 1716.35 -4468.5 4.1725e-15 1765.25 -4560.3 4.10298e-15 1812.89 -4650.42 7.03608e-15 1827.56 -4686.18 3.44561e-15 1811.21 -4668.3 3.33621e-15 1796.03 -4649.83 1.05012e-14 1781.89 -4630.82 6.99859e-15 1768.69 -4611.3 2.71182e-15 1756.33 -4591.33 2.95192e-15 1744.73 -4570.93 2.60862e-15 1733.8 -4550.15 8.58389e-15 1723.49 -4529.01 5.22823e-15 1713.72 -4507.54 5.11401e-15 1704.43 -4485.76 -1.24881e-16 1695.58 -4463.71 4.90261e-15 1687.12 -4441.4 9.732e-15 1679.01 -4418.85 -4.80261e-15 1671.19 -4396.08 4.6225e-15 1257.7 -3068.02 3.27106e-15 1314.28 -3190.26 3.59891e-15 1372.61 -3308.89 4.24627e-15 1432.09 -3424.22 7.57794e-15 1492.24 -3536.48 6.69746e-15 1552.64 -3645.9 5.8585e-15 1612.95 -3752.66 4.38199e-15 1672.88 -3856.92 9.31268e-15 1732.17 -3958.81 3.64497e-15 1790.6 -4058.46 1.02413e-14 1848.01 -4155.98 8.31713e-15 1904.23 -4251.44 7.66577e-15 1959.13 -4344.94 9.85238e-15 2012.59 -4436.55 7.49387e-15 2064.51 -4526.34 1.08917e-14 2081.45 -4562.6 1.02476e-14 2065.33 -4546.2 1.32394e-14 2050.06 -4529.18 2.18592e-15 2035.57 -4511.59 6.22737e-15 2021.74 -4493.49 1.23701e-14 2008.52 -4474.9 8.55929e-15 1995.83 -4455.88 1.11945e-14 1983.61 -4436.43 5.16871e-15 1971.81 -4416.61 4.91358e-15 1960.36 -4396.44 4.98696e-15 1949.23 -4375.93 7.56727e-15 1938.38 -4355.11 7.31685e-15 1927.75 -4334.01 9.55493e-15 1917.33 -4312.65 4.63014e-15 1907.08 -4291.03 9.23068e-15 1405.59 -2937.4 2.71291e-15 1473.13 -3059.6 3.12431e-15 1541.38 -3178.24 3.98395e-15 1609.89 -3293.58 2.64384e-15 1678.3 -3405.85 3.05722e-15 1746.29 -3515.24 3.91861e-15 1813.6 -3621.91 2.04668e-15 1880.01 -3726.02 5.79529e-15 1945.33 -3827.67 4.63407e-15 2009.4 -3926.99 4.56332e-15 2072.08 -4024.07 0 2133.25 -4118.99 4.41599e-15 2192.82 -4211.83 6.92854e-15 2250.71 -4302.65 9.48247e-15 2306.83 -4391.53 7.64071e-15 2326.06 -4427.84 3.39031e-15 2310.26 -4412.51 6.57414e-15 2295.05 -4396.57 3.18897e-15 2280.36 -4380.07 6.19126e-15 2266.13 -4363.04 2.54273e-15 2252.29 -4345.52 9.17926e-15 2238.78 -4327.54 6.04594e-15 2225.57 -4309.13 5.52674e-15 2212.6 -4290.33 2.42116e-15 2199.84 -4271.16 2.39692e-15 2187.25 -4251.63 4.92475e-15 2174.8 -4231.78 9.93846e-15 2162.45 -4211.61 7.26529e-15 2150.18 -4191.16 9.44528e-15 2137.97 -4170.44 9.21258e-15 1552.62 -2805.92 3.27533e-15 1629.79 -2927.2 3.66602e-15 1706.81 -3045.02 2.99614e-15 1783.36 -3159.6 4.85881e-15 1859.17 -3271.12 5.21152e-15 1934 -3379.77 4.598e-15 2007.67 -3485.67 5.41116e-15 2080.01 -3588.96 7.98435e-15 2150.89 -3689.75 2.615e-15 2220.19 -3788.13 4.25096e-15 2287.81 -3884.19 6.78864e-15 2353.67 -3978.01 4.21145e-15 2417.7 -4069.65 3.08756e-15 2479.84 -4159.18 1.0949e-15 2540.05 -4246.65 6.32405e-15 2561.54 -4282.58 3.91264e-15 2546.11 -4268.02 3.76808e-15 2531.05 -4252.86 1.12859e-15 2516.3 -4237.14 -2.37065e-15 2501.81 -4220.9 2.99295e-15 2487.54 -4204.18 5.8191e-15 2473.43 -4186.99 2.82981e-15 2459.46 -4169.38 -5.08451e-16 2445.59 -4151.35 2.24882e-15 2431.8 -4132.95 -3.56077e-16 2418.05 -4114.19 -2.82493e-15 2404.33 -4095.08 -3.1412e-16 2390.61 -4075.65 2.34687e-15 2376.86 -4055.92 -3.42017e-17 2363.08 -4035.89 -2.29837e-15 1698.44 -2673.23 2.51476e-15 1784.08 -2792.81 4.55766e-15 1868.85 -2909.04 2.05199e-15 1952.54 -3022.12 3.01473e-15 2034.96 -3132.22 2.40489e-15 2115.94 -3239.46 1.91067e-15 2195.36 -3343.96 2.73735e-15 2273.11 -3445.85 3.11645e-15 2349.1 -3545.2 0 2423.23 -3642.09 2.98262e-15 2495.46 -3736.62 2.91177e-15 2565.73 -3828.83 3.70565e-15 2633.99 -3918.8 5.87144e-15 2700.21 -4006.57 1.23027e-15 2764.35 -4092.2 4.31744e-15 2788.04 -4127.41 5.44587e-15 2773.02 -4113.34 2.0108e-15 2758.16 -4098.7 1.57899e-15 2743.42 -4083.53 3.06781e-15 2728.78 -4067.86 6.25073e-15 2714.2 -4051.71 1.44971e-15 2699.65 -4035.11 9.59632e-16 2685.11 -4018.1 -1.76303e-15 2670.55 -4000.68 2.67287e-15 2655.95 -3982.87 -2.73274e-16 2641.29 -3964.71 1.05196e-15 2626.56 -3946.19 2.47253e-15 2611.74 -3927.35 -2.51674e-15 2596.82 -3908.19 4.65012e-15 2581.79 -3888.73 0 1842.83 -2539.1 5.93039e-16 1935.87 -2656.2 5.43611e-17 2027.47 -2770.12 1.92725e-15 2117.48 -2881.03 2.18545e-16 2205.77 -2989.04 1.73261e-15 2292.27 -3094.26 0 2376.87 -3196.79 5.00783e-16 2459.53 -3296.71 1.3972e-15 2540.17 -3394.09 4.35408e-16 2618.76 -3489.01 1.30549e-15 2695.26 -3581.53 2.55988e-15 2769.65 -3671.7 1.25348e-15 2841.89 -3759.56 1.22625e-15 2911.97 -3845.18 1.19838e-15 2979.88 -3928.58 1.16996e-15 3005.7 -3962.77 1.13083e-15 2991.06 -3948.96 -2.72288e-16 2976.42 -3934.63 1.03579e-15 2961.75 -3919.81 2.25938e-16 2947.03 -3904.52 2.97314e-15 2932.24 -3888.79 1.44582e-15 2917.36 -3872.63 2.97305e-15 2902.37 -3856.07 1.3694e-15 2887.26 -3839.11 1.45066e-15 2872.03 -3821.79 -1.29903e-15 2856.65 -3804.11 1.18939e-15 2841.12 -3786.09 2.52474e-15 2825.43 -3767.74 -7.48834e-17 2809.57 -3749.07 -3.70412e-17 2793.54 -3730.1 0 1985.59 -2403.36 1.06072e-15 2085.1 -2517.22 1.41883e-15 2182.67 -2628.13 2.22362e-15 2278.23 -2736.19 2.07653e-15 2371.73 -2841.49 2.1619e-15 2463.12 -2944.11 2.3587e-15 2552.37 -3044.11 2.33533e-15 2639.43 -3141.55 2.7433e-15 2724.3 -3236.48 2.7142e-15 2806.96 -3328.96 3.37588e-15 2887.39 -3419.04 2.21848e-15 2965.59 -3506.75 2.61428e-15 3041.56 -3592.14 3.00534e-15 3115.28 -3675.24 2.12895e-15 3186.78 -3756.08 3.15701e-15 3214.59 -3788.98 1.66524e-15 3200.31 -3775.25 2.74978e-15 3185.87 -3761.06 1.42178e-15 3171.28 -3746.44 1.52599e-15 3156.51 -3731.4 6.20558e-16 3141.56 -3715.95 2.27284e-15 3126.42 -3700.12 6.07133e-16 3111.08 -3683.91 -8.23296e-17 3095.55 -3667.34 1.40133e-15 3079.8 -3650.42 -5.75855e-17 3063.84 -3633.16 -6.77666e-16 3047.67 -3615.58 -1.30004e-15 3031.28 -3597.67 -6.45501e-16 3014.67 -3579.46 0 2997.84 -3560.96 -5.71893e-16 2126.63 -2265.89 4.69947e-16 2231.73 -2375.75 3.86487e-16 2334.48 -2482.94 5.0012e-16 2434.89 -2587.51 6.01868e-16 2532.94 -2689.49 4.29737e-16 2628.64 -2788.93 4.76955e-16 2721.99 -2885.87 4.15205e-16 2812.99 -2980.33 7.18674e-16 2901.66 -3072.35 8.13447e-16 2987.99 -3161.97 6.04679e-16 3072 -3249.2 5.94522e-16 3153.71 -3334.08 8.75892e-16 3233.12 -3416.64 8.59438e-16 3310.24 -3496.9 9.86813e-16 3385.1 -3574.88 6.98179e-16 3414.79 -3606.27 1.15685e-15 3400.79 -3592.47 8.07338e-16 3386.52 -3578.29 1.27506e-15 3371.97 -3563.75 1.23287e-15 3357.16 -3548.85 1.33726e-15 3342.07 -3533.61 9.37075e-16 3326.71 -3518.03 6.70007e-16 3311.08 -3502.12 1.05193e-15 3295.18 -3485.88 1.02106e-15 3279.01 -3469.34 6.28985e-16 3262.57 -3452.48 9.3233e-16 3245.87 -3435.32 5.93323e-16 3228.9 -3417.87 8.85949e-16 3211.68 -3400.12 8.71333e-16 3194.2 -3382.1 8.57325e-16 2265.89 -2126.63 -3.5246e-16 2375.75 -2231.73 8.52852e-17 2482.94 -2334.48 1.23717e-16 2587.51 -2434.89 2.09598e-16 2689.49 -2532.94 3.28727e-16 2788.93 -2628.64 7.1395e-16 2885.87 -2721.99 8.84136e-16 2980.33 -2812.99 1.10784e-15 3072.35 -2901.66 1.33046e-15 3161.97 -2987.99 1.44375e-15 3249.2 -3072 1.47354e-15 3334.08 -3153.71 1.77353e-15 3416.64 -3233.12 1.70246e-15 3496.9 -3310.24 2.33828e-15 3574.88 -3385.1 1.92512e-15 3606.27 -3414.79 2.70253e-15 3592.47 -3400.79 2.42201e-15 3578.29 -3386.52 2.45011e-15 3563.75 -3371.97 3.04879e-15 3548.85 -3357.16 3.19004e-15 3533.61 -3342.07 3.09988e-15 3518.03 -3326.71 2.7748e-15 3502.12 -3311.08 2.70483e-15 3485.88 -3295.18 2.63774e-15 3469.34 -3279.01 3.25971e-15 3452.48 -3262.57 3.17338e-15 3435.32 -3245.87 3.40932e-15 3417.87 -3228.9 3.31762e-15 3400.12 -3211.68 3.52197e-15 3382.1 -3194.2 3.4293e-15 2403.36 -1985.59 -1.06072e-15 2517.22 -2085.1 -1.41883e-15 2628.13 -2182.67 -2.22362e-15 2736.19 -2278.23 -2.07653e-15 2841.49 -2371.73 -2.1619e-15 2944.11 -2463.12 -2.3587e-15 3044.11 -2552.37 -2.33533e-15 3141.55 -2639.43 -2.7433e-15 3236.48 -2724.3 -2.7142e-15 3328.96 -2806.96 -2.68281e-15 3419.04 -2887.39 -2.21848e-15 3506.75 -2965.59 -2.61428e-15 3592.14 -3041.56 -3.00534e-15 3675.24 -3115.28 -2.12895e-15 3756.08 -3186.78 -3.15701e-15 3788.98 -3214.59 -1.66524e-15 3775.25 -3200.31 -2.74978e-15 3761.06 -3185.87 -1.42178e-15 3746.44 -3171.28 -1.52599e-15 3731.4 -3156.51 -6.20558e-16 3715.95 -3141.56 -6.13543e-16 3700.12 -3126.42 -6.07133e-16 3683.91 -3111.08 8.23296e-17 3667.34 -3095.55 6.9835e-17 3650.42 -3079.8 7.63759e-16 3633.16 -3063.84 6.77666e-16 3615.58 -3047.67 1.30004e-15 3597.67 -3031.28 1.86959e-15 3579.46 -3014.67 1.19433e-15 3560.96 -2997.84 1.71568e-15 2539.1 -1842.83 -1.77912e-15 2656.2 -1935.87 -1.91079e-15 2770.12 -2027.47 -2.71508e-15 2881.03 -2117.48 -1.54672e-15 2989.04 -2205.77 -2.48955e-15 3094.26 -2292.27 0 3196.79 -2376.87 0 3296.71 -2459.53 -1.83359e-15 3394.09 -2540.17 -1.78911e-15 3489.01 -2618.76 -2.61097e-15 3581.53 -2695.26 -1.6945e-15 3671.7 -2769.65 -1.64495e-15 3759.56 -2841.89 -1.59424e-15 3845.18 -2911.97 3.44193e-16 3928.58 -2979.88 -5.29609e-16 3962.77 -3005.7 -1.13083e-15 3948.96 -2991.06 -1.08253e-15 3934.63 -2976.42 -1.32485e-15 3919.81 -2961.75 -1.30323e-15 3904.52 -2947.03 -1.2832e-15 3888.79 -2932.24 -1.26461e-15 3872.63 -2917.36 1.59451e-16 3856.07 -2902.37 1.6456e-15 3839.11 -2887.26 -1.21634e-15 3821.79 -2872.03 1.49227e-15 3804.11 -2856.65 -1.1129e-15 3786.09 -2841.12 -1.17722e-15 3767.74 -2825.43 1.3156e-15 3749.07 -2809.57 1.22923e-15 3730.1 -2793.54 0 2673.23 -1698.44 -2.51476e-15 2792.81 -1784.08 -4.55766e-15 2909.04 -1868.85 -2.05199e-15 3022.12 -1952.54 -3.01473e-15 3132.22 -2034.96 -2.40489e-15 3239.46 -2115.94 -1.91067e-15 3343.96 -2195.36 -2.73735e-15 3445.85 -2273.11 -3.11645e-15 3545.2 -2349.1 0 3642.09 -2423.23 -2.98262e-15 3736.62 -2495.46 -2.91177e-15 3828.83 -2565.73 -3.70565e-15 3918.8 -2633.99 -5.87144e-15 4006.57 -2700.21 -1.23027e-15 4092.2 -2764.35 -6.47616e-15 4127.41 -2788.04 -5.44587e-15 4113.34 -2773.02 -2.0108e-15 4098.7 -2758.16 -1.57899e-15 4083.53 -2743.42 -3.06781e-15 4067.86 -2728.78 -6.25073e-15 4051.71 -2714.2 -1.44971e-15 4035.11 -2699.65 -2.82066e-15 4018.1 -2685.11 0 4000.68 -2670.55 -2.67287e-15 3982.87 -2655.95 2.73274e-16 3964.71 -2641.29 -3.80504e-15 3946.19 -2626.56 -2.47253e-15 3927.35 -2611.74 2.51674e-15 3908.19 -2596.82 -4.65012e-15 3888.73 -2581.79 -2.29392e-15 2805.92 -1552.62 -3.27533e-15 2927.2 -1629.79 -3.66602e-15 3045.02 -1706.81 -2.99614e-15 3159.6 -1783.36 -4.85881e-15 3271.12 -1859.17 -5.21152e-15 3379.77 -1934 -4.598e-15 3485.67 -2007.67 -5.41116e-15 3588.96 -2080.01 -7.98435e-15 3689.75 -2150.89 -2.615e-15 3788.13 -2220.19 -4.25096e-15 3884.19 -2287.81 -6.78864e-15 3978.01 -2353.67 -4.21145e-15 4069.65 -2417.7 -3.08756e-15 4159.18 -2479.84 -4.08517e-15 4246.65 -2540.05 -6.32405e-15 4282.58 -2561.54 -3.91264e-15 4268.02 -2546.11 -3.76808e-15 4252.86 -2531.05 -1.12859e-15 4237.14 -2516.3 -1.54014e-15 4220.9 -2501.81 -6.35981e-15 4204.18 -2487.54 -5.8191e-15 4186.99 -2473.43 -2.82981e-15 4169.38 -2459.46 -5.50698e-15 4151.35 -2445.59 -5.36073e-15 4132.95 -2431.8 3.56077e-16 4114.19 -2418.05 0 4095.08 -2404.33 -2.37349e-15 4075.65 -2390.61 -2.34687e-15 4055.92 -2376.86 3.42017e-17 4035.89 -2363.08 -2.29837e-15 2937.4 -1405.59 -4.06936e-15 3059.6 -1473.13 -4.45507e-15 3178.24 -1541.38 -4.82256e-15 3293.58 -1609.89 -3.449e-15 3405.85 -1678.3 -4.28325e-15 3515.24 -1746.29 -5.10274e-15 3621.91 -1813.6 -5.00045e-15 3726.02 -1880.01 -7.79055e-15 3827.67 -1945.33 -5.67836e-15 3926.99 -2009.4 -7.34206e-15 4024.07 -2072.08 -1.77389e-15 4118.99 -2133.25 -4.41599e-15 4211.83 -2192.82 -1.04315e-14 4302.65 -2250.71 -4.26284e-15 4391.53 -2306.83 -4.18469e-15 4427.84 -2326.06 -5.75951e-15 4412.51 -2310.26 -3.28707e-15 4396.57 -2295.05 -3.18897e-15 4380.07 -2280.36 -9.28689e-15 4363.04 -2266.13 -2.54273e-15 4345.52 -2252.29 -9.17926e-15 4327.54 -2238.78 -8.88677e-15 4309.13 -2225.57 0 4290.33 -2212.6 -5.37844e-15 4271.16 -2199.84 -5.23634e-15 4251.63 -2187.25 -2.37472e-15 4231.78 -2174.8 -9.93846e-15 4211.61 -2162.45 -9.68705e-15 4191.16 -2150.18 -4.68007e-15 4170.44 -2137.97 -4.60629e-15 3068.02 -1257.7 -3.27106e-15 3190.26 -1314.28 -3.59891e-15 3308.89 -1372.61 -4.24627e-15 3424.22 -1432.09 -7.57794e-15 3536.48 -1492.24 -6.69746e-15 3645.9 -1552.64 -5.8585e-15 3752.66 -1612.95 -4.38199e-15 3856.92 -1672.88 -9.31268e-15 3958.81 -1732.17 -3.64497e-15 4058.46 -1790.6 -1.02413e-14 4155.98 -1848.01 -8.31713e-15 4251.44 -1904.23 -7.66577e-15 4344.94 -1959.13 -9.85238e-15 4436.55 -2012.59 -7.49387e-15 4526.34 -2064.51 -1.08917e-14 4562.6 -2081.45 -1.02476e-14 4546.2 -2065.33 -1.32394e-14 4529.18 -2050.06 -2.18592e-15 4511.59 -2035.57 -6.22737e-15 4493.49 -2021.74 -1.23701e-14 4474.9 -2008.52 -8.55929e-15 4455.88 -1995.83 -1.11945e-14 4436.43 -1983.61 -5.16871e-15 4416.61 -1971.81 -4.91358e-15 4396.44 -1960.36 -4.98696e-15 4375.93 -1949.23 -7.56727e-15 4355.11 -1938.38 -7.31685e-15 4334.01 -1927.75 -9.55493e-15 4312.65 -1917.33 -4.63014e-15 4291.03 -1907.08 -9.23068e-15 3198.2 -1109.36 -3.86559e-15 3319.53 -1153.47 -3.33507e-15 3437.25 -1200.59 -7.50259e-15 3551.68 -1249.93 -8.29965e-15 3663.1 -1300.87 -5.40131e-15 3771.76 -1352.87 -3.58465e-15 3877.84 -1405.49 -6.19937e-15 3981.52 -1458.35 -5.29135e-15 4082.95 -1511.11 -2.5941e-15 4182.26 -1563.52 -5.08366e-15 4279.56 -1615.32 -3.15556e-15 4374.94 -1666.32 -5.50098e-15 4468.5 -1716.35 -4.1725e-15 4560.3 -1765.25 -4.10298e-15 4650.42 -1812.89 -1.15851e-14 4686.18 -1827.56 -3.44561e-15 4668.3 -1811.21 -3.77527e-15 4649.83 -1796.03 -6.46514e-15 4630.82 -1781.89 -3.65061e-16 4611.3 -1768.69 -6.73959e-15 4591.33 -1756.33 -2.95192e-15 4570.93 -1744.73 -6.25179e-15 4550.15 -1733.8 -8.58389e-15 4529.01 -1723.49 -5.60947e-15 4507.54 -1713.72 4.72412e-16 4485.76 -1704.43 1.24881e-16 4463.71 -1695.58 -4.80976e-15 4441.4 -1687.12 -4.74328e-15 4418.85 -1679.01 4.80261e-15 4396.08 -1671.19 0 3328.5 -961.153 -3.37915e-15 3447.84 -991.032 -7.31937e-15 3563.61 -1025.44 -5.77107e-15 3676.17 -1063.4 -5.10423e-15 3785.82 -1104.07 -5.97577e-15 3892.81 -1146.79 -6.85217e-15 3997.35 -1190.97 -9.62631e-15 4099.63 -1236.13 -1.13742e-14 4199.8 -1281.86 -4.64532e-15 4298 -1327.82 -5.62064e-15 4394.34 -1373.7 -1.00393e-14 4488.93 -1419.24 -1.17321e-14 4581.85 -1464.22 -1.52039e-14 4673.18 -1508.45 -1.14194e-14 4762.98 -1551.77 -2.95874e-15 4797.68 -1564.22 -1.09916e-14 4777.89 -1547.81 -1.0098e-14 4757.54 -1532.9 -1.39669e-14 4736.67 -1519.36 -9.471e-15 4715.34 -1507.05 -8.79975e-15 4693.58 -1495.87 -8.90686e-15 4671.43 -1485.69 -5.46316e-15 4648.93 -1476.44 -1.09347e-14 4626.1 -1468.03 -5.21784e-15 4602.97 -1460.38 -1.03938e-14 4579.58 -1453.41 5.43495e-15 4555.94 -1447.07 -9.90432e-15 4532.07 -1441.3 5.0886e-15 4508 -1436.05 1.06375e-16 4483.74 -1431.27 -4.62606e-15 3459.65 -813.793 -3.90147e-15 3575.74 -827.374 -7.43784e-15 3688.36 -847.371 -6.54485e-15 3797.92 -872.505 -2.24651e-15 3904.71 -901.728 -6.43804e-15 4009.01 -934.168 -6.28939e-15 4111.04 -969.097 -1.99598e-15 4210.97 -1005.9 -1.3952e-14 4308.98 -1044.07 -7.78428e-15 4405.2 -1083.16 -9.34673e-16 4499.75 -1122.8 -1.48784e-14 4592.72 -1162.65 -4.56736e-15 4684.21 -1202.45 -1.26293e-14 4774.29 -1241.95 -8.01963e-15 4863.04 -1280.95 -7.88487e-15 4896.03 -1291.29 -7.03493e-15 4873.81 -1275.03 -6.79816e-15 4851.08 -1260.66 -1.4219e-14 4827.87 -1248.03 -3.18166e-15 4804.24 -1236.97 -1.23264e-14 4780.22 -1227.35 -1.87033e-14 4755.86 -1219.04 0 4731.19 -1211.94 -1.15435e-14 4706.23 -1205.94 -1.11724e-14 4681.01 -1200.95 -5.09241e-15 4655.57 -1196.89 -1.54647e-14 4629.91 -1193.68 -1.0151e-14 4604.06 -1191.25 -4.71291e-15 4578.04 -1189.55 -4.66632e-15 4551.87 -1188.51 -1.38718e-14 3592.6 -668.231 -4.47647e-15 3703.92 -663.052 -4.05654e-15 3811.99 -666.624 -5.9221e-15 3917.2 -677.296 -9.86003e-15 4019.89 -693.72 -5.8632e-15 4120.31 -714.787 -8.85513e-15 4218.68 -739.576 -6.57376e-15 4315.19 -767.318 -6.39629e-15 4410 -797.365 -6.22085e-15 4503.24 -829.167 -6.04735e-15 4595.02 -862.255 -9.73575e-15 4685.45 -896.23 -8.55729e-15 4774.6 -930.746 -1.76787e-14 4862.56 -965.505 -8.23166e-15 4949.38 -1000.25 -3.64812e-15 4979.95 -1008.68 -7.84057e-15 4954.7 -992.849 -4.09996e-15 4928.99 -979.371 -7.24517e-15 4902.87 -968.041 -1.33848e-14 4876.39 -958.677 0 4849.57 -951.118 0 4822.46 -945.219 -5.82178e-15 4795.08 -940.849 6.83716e-16 4767.46 -937.89 -5.76572e-15 4739.64 -936.235 0 4711.62 -935.788 -4.96943e-15 4683.43 -936.46 -1.01711e-14 4655.09 -938.172 9.42628e-17 4626.62 -940.849 -4.69452e-15 4598.03 -944.426 0 3728.59 -525.709 -3.41153e-15 3833.29 -498.793 -3.70816e-15 3935.09 -483.555 -6.39184e-15 4034.38 -477.847 -3.85949e-15 4131.46 -479.932 -6.74061e-15 4226.6 -488.394 -6.54799e-15 4320 -502.068 -6.36133e-15 4411.83 -519.984 -5.51655e-15 4502.23 -541.331 -5.37073e-15 4591.34 -565.428 -9.85798e-15 4679.26 -591.693 -5.663e-15 4766.07 -619.632 -4.42252e-15 4851.85 -648.821 -1.73027e-14 4936.67 -678.893 -1.17506e-14 5020.6 -709.533 -4.14222e-15 5047.9 -716.319 0 5018.92 -701.314 -6.94848e-15 4989.57 -689.171 -7.04627e-15 4959.88 -679.651 -6.78305e-15 4929.89 -672.546 -1.27842e-14 4899.63 -667.666 -6.04377e-15 4869.14 -664.843 -5.84783e-15 4838.44 -663.926 3.87429e-16 4807.56 -664.779 -1.08068e-14 4776.51 -667.278 -5.18185e-15 4745.31 -671.313 1.06436e-14 4713.99 -676.783 -9.9336e-15 4682.56 -683.594 2.14287e-16 4651.03 -691.665 -4.67108e-15 4619.42 -700.916 4.5923e-15 3869.28 -387.881 -2.92053e-15 3965.02 -335.562 -4.79037e-15 4058.44 -298.64 -5.60311e-15 4149.86 -274.289 -5.4165e-15 4239.56 -260.255 -9.62922e-15 4327.75 -254.72 -6.21776e-15 4414.61 -256.199 -6.02651e-15 4500.29 -263.473 -1.5288e-14 4584.9 -275.527 -9.91421e-15 4668.55 -291.511 -5.5034e-15 4751.32 -310.709 -9.40212e-15 4833.29 -332.512 -5.18789e-15 4914.52 -356.402 -5.0381e-15 4995.06 -381.932 -1.25484e-14 5074.96 -408.716 -1.55367e-14 5098.05 -414.246 -1.50789e-14 5064.55 -400.565 -6.60851e-15 5030.77 -390.327 -7.158e-15 4996.76 -383.257 7.05409e-16 4962.53 -379.111 -1.2269e-14 4928.11 -377.672 -5.79095e-15 4893.52 -378.747 -1.14876e-14 4858.78 -382.164 -5.45587e-15 4823.92 -387.767 -5.30339e-15 4788.95 -395.416 5.62244e-15 4753.88 -404.984 2.45214e-16 4718.72 -416.358 -4.89743e-15 4683.49 -429.433 1.21216e-16 4648.2 -444.115 -4.63357e-15 4612.87 -460.317 0 4016.89 -256.984 -1.11176e-15 4100.68 -174.658 -2.48163e-15 4183.04 -112.527 -4.77028e-15 4264.2 -66.8225 -2.29451e-15 4344.33 -34.5869 -4.80613e-16 4423.57 -13.4641 -3.33266e-15 4502.04 -1.55546 -5.10971e-15 4579.84 2.68637 -1.48523e-14 4657.03 0.534725 -4.80372e-15 4733.67 -6.953 -3.80668e-16 4809.84 -18.8916 -4.53961e-15 4885.56 -34.5345 -3.39824e-16 4960.87 -53.2477 -4.30801e-15 5035.81 -74.4895 -7.80698e-15 5110.41 -97.7943 -7.36999e-15 5128.2 -102.587 -7.93131e-15 5089.29 -90.8752 0 5050.23 -83.2647 4.34843e-16 5011.04 -79.4393 -6.57937e-15 4971.73 -79.1197 -6.1551e-15 4932.31 -82.0587 1.25247e-14 4892.81 -88.0368 1.41173e-16 4853.24 -96.8581 1.22794e-16 4813.59 -108.347 1.04652e-16 4773.89 -122.347 1.61545e-14 4734.14 -138.717 1.03833e-14 4694.35 -157.328 1.00147e-14 4654.53 -178.065 6.83211e-17 4614.68 -200.824 9.32611e-15 4574.8 -225.508 9.00389e-15 4174.52 -136.107 0 4242.38 -17.8531 -7.64625e-16 4310.24 73.8977 -5.81331e-15 4378.09 144.255 -6.9331e-15 4445.95 197.161 -1.06204e-14 4513.81 235.702 -1.01989e-14 4581.66 262.331 -7.36557e-15 4649.52 279.024 -9.47953e-15 4717.38 287.387 -4.58504e-15 4785.23 288.74 -8.88815e-15 4853.09 284.179 -8.63024e-15 4920.95 274.621 -1.25901e-14 4988.8 260.839 -4.08758e-15 5056.66 243.488 -7.97341e-15 5124.51 223.129 -1.55727e-14 5135.78 218.383 -1.50589e-14 5090.46 227.31 -7.20981e-15 5045.13 231.389 -1.38223e-14 4999.8 230.984 -1.3263e-14 4954.48 226.412 -6.36904e-15 4909.15 217.952 -6.12227e-15 4863.83 205.852 -1.76694e-14 4818.5 190.332 -5.67046e-15 4773.18 171.586 -1.09263e-14 4727.85 149.79 -1.05337e-14 4682.53 125.098 -1.01616e-14 4637.2 97.6531 -9.80835e-15 4591.88 67.5805 -9.47253e-15 4546.55 34.9949 -9.15291e-15 4501.23 -8.4944e-13 -8.84834e-15 136.106 -4174.5 3.86008e-12 17.8529 -4242.35 3.21803e-12 -73.8971 -4310.21 2.66104e-12 -144.254 -4378.06 2.17144e-12 -197.16 -4445.92 1.73374e-12 -235.7 -4513.77 1.35248e-12 -262.33 -4581.63 1.00339e-12 -279.022 -4649.49 6.92977e-13 -287.385 -4717.34 4.03192e-13 -288.738 -4785.2 1.43607e-13 -284.177 -4853.05 -9.94718e-14 -274.619 -4920.91 -3.08847e-13 -260.837 -4988.77 -5.0642e-13 -243.486 -5056.62 -6.92611e-13 -223.127 -5124.48 -8.57839e-13 -218.381 -5135.74 -9.64078e-13 -227.308 -5090.42 -9.81324e-13 -231.388 -5045.09 -9.8356e-13 -230.982 -4999.77 -1.00564e-12 -226.41 -4954.44 -1.01375e-12 -217.951 -4909.12 -1.02742e-12 -205.851 -4863.79 -1.0406e-12 -190.331 -4818.47 -1.05841e-12 -171.585 -4773.14 -1.06411e-12 -149.788 -4727.82 -1.07549e-12 -125.097 -4682.49 -1.08574e-12 -97.6524 -4637.17 -1.10021e-12 -67.58 -4591.84 -1.10976e-12 -34.9947 -4546.52 -1.11806e-12 0 -4501.19 -1.12661e-12 256.982 -4016.86 2.96722e-12 174.657 -4100.65 2.49462e-12 112.526 -4183.01 2.07997e-12 66.822 -4264.17 1.71589e-12 34.5866 -4344.3 1.39328e-12 13.464 -4423.54 1.0979e-12 1.55544 -4502.01 8.35279e-13 -2.68635 -4579.8 5.9644e-13 -0.534721 -4656.99 3.84524e-13 6.95295 -4733.64 1.86277e-13 18.8915 -4809.8 9.89581e-15 34.5342 -4885.52 -1.69031e-13 53.2473 -4960.84 -3.09914e-13 74.489 -5035.78 -4.46923e-13 97.7936 -5110.38 -5.86022e-13 102.587 -5128.17 -6.72123e-13 90.8745 -5089.26 -7.1778e-13 83.2641 -5050.19 -7.52934e-13 79.4387 -5011 -7.93165e-13 79.1191 -4971.69 -8.43042e-13 82.0582 -4932.28 -8.72449e-13 88.0362 -4892.78 -8.99116e-13 96.8574 -4853.2 -9.40904e-13 108.347 -4813.56 -9.63832e-13 122.347 -4773.86 -9.80337e-13 138.716 -4734.11 -1.0111e-12 157.327 -4694.32 -1.04075e-12 178.064 -4654.5 -1.05845e-12 200.822 -4614.64 -1.07911e-12 225.506 -4574.77 -1.10007e-12 387.879 -3869.25 2.18701e-12 335.56 -3964.99 1.85895e-12 298.638 -4058.41 1.57051e-12 274.287 -4149.83 1.30911e-12 260.253 -4239.53 1.08465e-12 254.718 -4327.72 8.76589e-13 256.198 -4414.58 6.89879e-13 263.471 -4500.26 5.1944e-13 275.525 -4584.87 3.62733e-13 291.509 -4668.52 2.2599e-13 310.707 -4751.29 9.62921e-14 332.51 -4833.26 -2.65231e-14 356.399 -4914.48 -1.40672e-13 381.929 -4995.02 -2.32344e-13 408.713 -5074.92 -3.21611e-13 414.243 -5098.01 -4.0835e-13 400.562 -5064.51 -4.79393e-13 390.324 -5030.74 -5.55007e-13 383.254 -4996.72 -6.09808e-13 379.108 -4962.49 -6.68281e-13 377.669 -4928.07 -7.28301e-13 378.745 -4893.48 -7.72649e-13 382.162 -4858.75 -8.20534e-13 387.764 -4823.89 -8.60099e-13 395.413 -4788.91 -9.07211e-13 404.981 -4753.84 -9.57165e-13 416.355 -4718.69 -9.88449e-13 429.43 -4683.46 -1.01297e-12 444.112 -4648.17 -1.0455e-12 460.314 -4612.83 -1.08091e-12 525.705 -3728.57 1.49358e-12 498.789 -3833.26 1.28887e-12 483.552 -3935.06 1.10851e-12 477.844 -4034.35 9.46521e-13 479.929 -4131.43 8.03297e-13 488.391 -4226.57 6.73973e-13 502.064 -4319.97 5.50172e-13 519.98 -4411.8 4.45273e-13 541.327 -4502.2 3.44956e-13 565.424 -4591.31 2.58982e-13 591.688 -4679.22 1.73325e-13 619.627 -4766.03 9.3469e-14 648.816 -4851.82 3.56155e-14 678.888 -4936.64 -3.69295e-14 709.528 -5020.56 -9.58527e-14 716.314 -5047.87 -1.82222e-13 701.309 -5018.89 -2.71198e-13 689.166 -4989.53 -3.47108e-13 679.646 -4959.84 -4.43937e-13 672.541 -4929.85 -5.26576e-13 667.661 -4899.6 -5.86848e-13 664.838 -4869.11 -6.54978e-13 663.921 -4838.41 -7.35153e-13 664.774 -4807.52 -7.71596e-13 667.273 -4776.47 -8.37854e-13 671.309 -4745.28 -8.94354e-13 676.778 -4713.96 -9.37398e-13 683.59 -4682.53 -9.87432e-13 691.66 -4651 -1.02059e-12 700.911 -4619.39 -1.06478e-12 668.226 -3592.58 8.65702e-13 663.047 -3703.89 7.71205e-13 666.619 -3811.96 6.91015e-13 677.291 -3917.18 6.1747e-13 693.715 -4019.86 5.46166e-13 714.782 -4120.28 4.85338e-13 739.571 -4218.65 4.33442e-13 767.313 -4315.16 3.82947e-13 797.359 -4409.97 3.38706e-13 829.161 -4503.21 2.94062e-13 862.249 -4594.99 2.64141e-