<?xml version="1.0"?> 
<VTKFile type="StructuredGrid" version="0.1"> 
<StructuredGrid WholeExtent="0 29 0 29 0 29"> 
<Piece Extent="0 29 0 29 0 29"> 
<PointData>
<DataArray type="Float32" Name="hfield" format="ascii" NumberOfComponents="3"> 
33.8407 -1.99463 1.27853 35.7992 -1.98871 1.193 37.7809 -1.86232 1.11795 39.7893 -1.64373 1.05156 41.828 -1.35468 0.992432 43.901 -1.01215 0.939423 46.012 -0.629566 0.891633 48.1652 -0.217624 0.848327 50.365 0.21504 0.808903 52.6158 0.661394 0.772861 54.9226 1.11566 0.739783 57.2905 1.57304 0.709319 59.7249 2.02953 0.68117 62.2318 2.4817 0.655083 64.8176 2.92664 0.630838 65.0754 2.59531 0.526165 62.942 1.60483 0.349025 60.8052 0.755315 0.183198 58.6608 0.0410313 0.0276352 56.5042 -0.542423 -0.118589 54.3309 -0.998244 -0.25629 52.1358 -1.32849 -0.386193 49.9135 -1.53414 -0.508941 47.6582 -1.6151 -0.62511 45.3636 -1.57023 -0.735215 43.0227 -1.39728 -0.839719 40.6282 -1.09288 -0.939039 38.1715 -0.652438 -1.03355 35.6434 -0.0700489 -1.12359 33.0334 0.661654 -1.20948 32.072 -1.29196 1.11364 34.1638 -0.914294 1.04267 36.2667 -0.464677 0.979769 38.3858 0.0383222 0.923642 40.5261 0.580268 0.873249 42.6922 1.14983 0.827756 44.8891 1.73803 0.786482 47.1215 2.3377 0.748868 49.3946 2.94306 0.714447 51.7134 3.54945 0.682831 54.0835 4.15304 0.653691 56.5103 4.75071 0.626748 59 5.33985 0.601762 61.5589 5.9183 0.57853 64.1937 6.48424 0.556872 64.5211 6.18816 0.464218 62.4808 5.14069 0.307734 60.4397 4.22145 0.161406 58.3941 3.42504 0.0243281 56.3401 2.74718 -0.104304 54.2735 2.18467 -0.225203 52.1898 1.73527 -0.339004 50.0841 1.39772 -0.446273 47.9511 1.17167 -0.54752 45.785 1.05775 -0.6432 43.5794 1.05751 -0.733728 41.3274 1.17354 -0.819474 39.0209 1.40952 -0.900777 36.6514 1.7703 -0.977944 34.2088 2.26206 -1.05125 30.4639 -0.428608 0.972914 32.6517 0.255012 0.913271 34.8423 0.975666 0.859976 37.0414 1.72129 0.81207 39.2545 2.48252 0.768777 41.4869 3.25204 0.729465 43.7441 4.02408 0.69361 46.0314 4.79411 0.660778 48.3541 5.55855 0.630604 50.7178 6.31456 0.602778 53.1283 7.0599 0.577039 55.5916 7.7928 0.553162 58.114 8.51187 0.530954 60.7022 9.216 0.510245 63.3634 9.90434 0.490892 63.743 9.64898 0.408966 61.7848 8.55362 0.270919 59.8288 7.57517 0.141987 57.8715 6.70852 0.0213831 55.9097 5.94955 -0.0915943 53.9396 5.29503 -0.197569 51.9571 4.74264 -0.2971 49.9578 4.29084 -0.390687 47.9369 3.93895 -0.478783 45.889 3.68709 -0.561791 43.8084 3.53625 -0.640082 41.6883 3.48831 -0.713987 39.5217 3.54609 -0.78381 37.3001 3.71351 -0.849827 35.0144 3.99563 -0.912289 28.9724 0.551295 0.850735 31.2292 1.49046 0.80016 33.4823 2.44113 0.754664 35.7378 3.39579 0.71352 38.0016 4.34867 0.676138 40.2792 5.29536 0.642028 42.5763 6.23251 0.61078 44.8986 7.15761 0.582052 47.2515 8.06876 0.555553 49.6411 8.96459 0.531037 52.0731 9.84415 0.50829 54.554 10.7068 0.487131 57.0902 11.5522 0.4674 59.6886 12.3802 0.448959 62.3568 13.1907 0.431688 62.7738 12.9796 0.359412 60.8881 11.8434 0.23792 59.0075 10.8141 0.124595 57.1293 9.88674 0.0187478 55.2504 9.05745 -0.0802327 53.3674 8.32302 -0.172895 51.4768 7.68103 -0.25973 49.5744 7.12975 -0.341182 47.6561 6.6682 -0.417649 45.7167 6.29609 -0.489493 43.7511 6.0139 -0.557042 41.7531 5.82286 -0.620595 39.7159 5.72509 -0.680422 37.632 5.72359 -0.736772 35.4927 5.82245 -0.789871 27.5658 1.61612 0.743014 29.8713 2.77118 0.6999 32.1678 3.91896 0.660899 34.4615 5.05514 0.625454 36.7584 6.17659 0.593104 39.0643 7.2811 0.563466 41.3848 8.36713 0.536215 43.7259 9.43373 0.511078 46.0932 10.4804 0.487821 48.4928 11.5069 0.466245 50.9307 12.5133 0.446175 53.4133 13.5001 0.427463 55.9474 14.4677 0.409977 58.54 15.4168 0.393603 61.1987 16.3483 0.37824 61.6405 16.1835 0.314706 59.8187 15.0118 0.208176 58.0052 13.9381 0.108932 56.1977 12.9577 0.0163772 54.3934 12.0668 -0.0700249 52.5893 11.2623 -0.150755 50.782 10.5418 -0.226245 48.9681 9.90329 -0.296887 47.1434 9.34562 -0.363035 45.3036 8.86815 -0.425008 43.4437 8.47089 -0.483099 41.5582 8.15457 -0.537574 39.6409 7.92059 -0.588676 37.6847 7.77122 -0.636627 35.6815 7.70958 -0.68163 26.221 2.74264 0.64671 28.5596 4.08179 0.609889 30.8845 5.39976 0.576427 33.2019 6.6946 0.54589 35.5178 7.96515 0.517916 37.8382 9.21085 0.4922 40.1687 10.4316 0.468483 42.5153 11.6277 0.446545 44.8839 12.7996 0.426197 47.2803 13.9483 0.407275 49.7109 15.0746 0.389638 52.1822 16.1798 0.373162 54.7008 17.2652 0.357738 57.274 18.3322 0.343273 59.9094 19.3824 0.329681 60.3652 19.265 0.274125 58.5999 18.0619 0.181203 56.8463 16.9488 0.0947453 55.1023 15.9213 0.0142327 53.3652 14.9758 -0.0608026 51.6325 14.1093 -0.130781 49.9011 13.3193 -0.196083 48.1678 12.6037 -0.257051 46.4288 11.9612 -0.313997 44.6802 11.3908 -0.367206 42.9176 10.8922 -0.416936 41.1357 10.4656 -0.463423 39.329 10.1119 -0.506883 37.491 9.8326 -0.547514 35.6143 9.63001 -0.585497 24.9204 3.91354 0.559504 27.2798 5.41077 0.528113 29.6211 6.8766 0.499478 31.9505 8.31086 0.473257 34.274 9.71388 0.449162 36.5976 11.0864 0.42695 38.927 12.4294 0.406412 41.2682 13.7442 0.387371 43.6269 15.0323 0.369673 46.0093 16.2952 0.353184 48.4217 17.5348 0.337787 50.8704 18.7529 0.323381 53.3623 19.9515 0.309877 55.9047 21.1329 0.297194 58.5052 22.2991 0.285262 58.9659 22.2291 0.237042 57.2508 20.9976 0.156583 55.5508 19.849 0.0818128 53.8639 18.7792 0.0122804 52.1878 17.7848 -0.0524193 50.5199 16.8627 -0.112652 48.8577 16.0105 -0.168749 47.198 15.2262 -0.221012 45.5376 14.5081 -0.269712 43.8729 13.8551 -0.315099 42.1996 13.2666 -0.357401 40.5133 12.7423 -0.396825 38.8087 12.2827 -0.433562 37.08 11.8886 -0.467788 35.3204 11.5617 -0.499663 23.6512 5.11568 0.479585 26.0212 6.7494 0.452982 28.369 8.34433 0.428637 30.7006 9.90164 0.406282 33.0222 11.4228 0.385688 35.3396 12.9096 0.366658 37.6586 14.364 0.349027 39.9851 15.788 0.332649 42.3249 17.1838 0.317399 44.684 18.5537 0.303169 47.0689 19.9003 0.289863 49.4858 21.2259 0.277397 51.9416 22.5333 0.265696 54.4435 23.8252 0.254696 56.9992 25.1045 0.244338 57.4572 25.0815 0.202914 55.7869 23.8238 0.133954 54.1352 22.6426 0.0699414 52.5 21.5341 0.0104908 50.8792 20.495 -0.0447464 49.2706 19.5225 -0.0960859 47.6717 18.6141 -0.143814 46.0796 17.7678 -0.18819 44.4914 16.9817 -0.229451 42.9038 16.2546 -0.267814 41.3129 15.5856 -0.303477 39.7147 14.9741 -0.33662 38.1045 14.4201 -0.36741 36.4769 13.9239 -0.396002 34.8258 13.4865 -0.422534 22.4031 6.33902 0.40551 24.7753 8.09109 0.383209 27.1212 9.79916 0.36275 29.4469 11.4655 0.343919 31.7585 13.0924 0.326534 34.0618 14.6825 0.310441 36.3624 16.2385 0.295504 38.6663 17.7631 0.281607 40.9794 19.2591 0.26865 43.3075 20.7294 0.256543 45.657 22.1771 0.245208 48.0342 23.6052 0.234578 50.446 25.017 0.224592 52.8993 26.4157 0.215195 55.4019 27.8048 0.206339 55.8506 27.8279 0.171264 54.2207 26.5454 0.112994 52.6127 25.3337 0.0589606 51.0246 24.1893 0.00883795 49.4545 23.109 -0.0376703 47.9003 22.0902 -0.0808324 46.3596 21.1303 -0.120892 44.8298 20.2273 -0.158071 43.3082 19.3793 -0.192572 41.7918 18.585 -0.22458 40.2771 17.8432 -0.254264 38.7604 17.153 -0.281781 37.2375 16.5141 -0.307274 35.7035 15.9262 -0.330873 34.153 15.3899 -0.352701 21.1686 7.57587 0.336102 23.5354 9.43083 0.317738 25.8722 11.2384 0.300855 28.1849 13.0015 0.285287 30.4794 14.7233 0.270891 32.7616 16.4071 0.257544 35.0371 18.0561 0.245138 37.3117 19.6736 0.233582 39.5913 21.2629 0.222794 41.8817 22.8276 0.212704 44.1892 24.371 0.203249 46.52 25.8967 0.194374 48.8809 27.4085 0.186029 51.2788 28.9103 0.178172 53.7213 30.4059 0.170762 54.1552 30.4738 0.141666 52.5619 29.1676 0.0934173 50.9938 27.927 0.0487187 49.449 26.7487 0.00729847 47.9256 25.6298 -0.0310894 46.4216 24.5677 -0.0666685 44.9348 23.56 -0.0996421 43.4627 22.6046 -0.130196 42.003 21.6997 -0.158499 40.5526 20.8436 -0.184706 39.1087 20.0351 -0.20896 37.6676 19.2731 -0.231392 36.2258 18.5569 -0.252121 34.7787 17.8858 -0.271259 33.3216 17.2599 -0.288908 19.9416 8.82029 0.270382 22.2964 10.7649 0.255679 24.6175 12.66 0.24214 26.9107 14.5093 0.229638 29.182 16.3166 0.218061 31.437 18.0855 0.207313 33.6813 19.8198 0.197314 35.9207 21.5232 0.18799 38.161 23.1997 0.179277 40.4079 24.8529 0.171122 42.6676 26.487 0.163474 44.9462 28.1059 0.156291 47.2504 29.7137 0.149532 49.587 31.3147 0.143165 51.9634 32.9135 0.137158 52.3779 33.025 0.11374 50.8181 31.6955 0.0749687 49.2867 30.427 0.0390789 47.782 29.2164 0.00585142 46.302 28.0608 -0.0249123 44.8447 26.9578 -0.053393 43.4081 25.9051 -0.0797552 41.99 24.9005 -0.104149 40.5879 23.9423 -0.126712 39.1993 23.0288 -0.14757 37.8214 22.1584 -0.166839 36.451 21.3299 -0.184625 35.0847 20.5423 -0.201025 33.7187 19.7947 -0.216131 32.3486 19.0865 -0.230026 18.7177 10.0678 0.207514 21.0542 12.0905 0.196268 23.3535 14.0628 0.1859 25.6214 15.989 0.176315 27.8636 17.8732 0.16743 30.0858 19.7195 0.159174 32.2935 21.5322 0.151486 34.4924 23.3154 0.144312 36.6882 25.0732 0.137604 38.8864 26.81 0.131321 41.0932 28.5301 0.125425 43.3146 30.2377 0.119884 45.557 31.9376 0.11467 47.8272 33.6345 0.109754 50.1323 35.3332 0.105115 50.5235 35.4865 0.0871382 48.9946 34.1341 0.0574138 47.4974 32.8383 0.0299164 46.0301 31.5962 0.00447766 44.5907 30.4052 -0.0190554 43.1774 29.263 -0.040822 41.7881 28.1673 -0.060949 40.4207 27.1161 -0.0795524 39.0729 26.1074 -0.0967384 37.7424 25.1395 -0.112604 36.4265 24.2108 -0.12724 35.1224 23.32 -0.140727 33.8272 22.4655 -0.153141 32.5372 21.6464 -0.164554 31.2487 20.8614 -0.175029 17.4936 11.3151 0.146767 19.8056 13.4058 0.138832 22.0772 15.4462 0.13151 24.3141 17.4408 0.124735 26.5219 19.3944 0.11845 28.7061 21.3113 0.112607 30.8722 23.1962 0.107161 33.0257 25.0533 0.102077 35.1721 26.8874 0.0973213 37.3171 28.7029 0.0928643 39.4664 30.5045 0.0886806 41.626 32.2969 0.0847473 43.8022 34.0851 0.0810441 46.0015 35.8743 0.0775526 48.2308 37.6697 0.0742565 48.5953 37.8632 0.0615406 47.0952 36.4878 0.0405366 45.63 35.1649 0.021116 44.198 33.8919 0.0031595 42.7971 32.6664 -0.0134414 41.4255 31.4861 -0.0287854 40.081 30.3488 -0.0429626 38.7618 29.2524 -0.0560554 37.4656 28.1952 -0.0681393 36.1901 27.1752 -0.0792836 34.9331 26.1908 -0.0895518 33.6919 25.2403 -0.0990027 32.4639 24.3222 -0.10769 31.2458 23.435 -0.115665 30.0343 22.5773 -0.122972 16.2668 12.5597 0.087487 18.5483 14.7095 0.082764 20.7864 16.8098 0.0784032 22.9867 18.8655 0.0743659 25.1547 20.8816 0.070619 27.2959 22.8629 0.0671337 29.4155 24.8141 0.0638847 31.5189 26.74 0.06085 33.6116 28.6454 0.0580102 35.6989 30.5352 0.0553481 37.7865 32.4142 0.0528487 39.8803 34.2875 0.0504983 41.9862 36.1605 0.0482848 44.1105 38.0385 0.0461975 46.26 39.9273 0.0442267 46.5949 40.1593 0.0366467 45.1219 38.7605 0.0241345 43.6872 37.4105 0.0125695 42.2888 36.1068 0.00188032 40.9247 34.8471 -0.00799763 39.5929 33.6292 -0.0171234 38.2915 32.4511 -0.0255508 37.0185 31.3106 -0.0333291 35.7717 30.206 -0.0405035 34.5491 29.1353 -0.0471153 33.3485 28.0966 -0.0532028 32.1675 27.0883 -0.0588011 31.0037 26.1085 -0.0639424 29.8542 25.1555 -0.0686568 28.7163 24.2273 -0.0729719 15.036 13.8003 0.0290677 17.2805 16.0011 0.0274996 19.4791 18.1539 0.0260513 21.6372 20.2639 0.0247101 23.7602 22.3364 0.0234651 25.8532 24.3762 0.0223067 27.9216 26.3885 0.0212267 29.9704 28.3782 0.0202177 32.005 30.3504 0.0192734 34.0306 32.3101 0.018388 36.0525 34.2625 0.0175567 38.0765 36.2131 0.0167748 40.1083 38.1672 0.0160383 42.1541 40.1308 0.0153438 44.2201 42.1098 0.014688 44.5229 42.3782 0.0121695 43.0756 40.9556 0.00801377 41.6699 39.5781 0.00417322 40.3039 38.2435 0.000624223 38.9753 36.9496 -0.00265474 37.6821 35.6943 -0.00568329 36.4224 34.4755 -0.00847935 35.1942 33.2913 -0.0110593 33.9955 32.1397 -0.0134382 32.8242 31.0188 -0.0156298 31.6782 29.9266 -0.0176468 30.5556 28.8611 -0.0195009 29.4539 27.8205 -0.0212029 28.3708 26.8025 -0.0227627 27.3038 25.8051 -0.0241896 13.8003 15.036 -0.0290677 16.0011 17.2805 -0.0274996 18.1539 19.4791 -0.0260513 20.2639 21.6372 -0.0247101 22.3364 23.7602 -0.0234651 24.3762 25.8532 -0.0223067 26.3885 27.9216 -0.0212267 28.3782 29.9704 -0.0202177 30.3504 32.005 -0.0192734 32.3101 34.0306 -0.018388 34.2625 36.0525 -0.0175567 36.2131 38.0765 -0.0167748 38.1672 40.1083 -0.0160383 40.1308 42.1541 -0.0153438 42.1098 44.2201 -0.014688 42.3782 44.5229 -0.0121695 40.9556 43.0756 -0.00801377 39.5781 41.6699 -0.00417322 38.2435 40.3039 -0.000624223 36.9496 38.9753 0.00265474 35.6943 37.6821 0.00568329 34.4755 36.4224 0.00847935 33.2913 35.1942 0.0110593 32.1397 33.9955 0.0134382 31.0188 32.8242 0.0156298 29.9266 31.6782 0.0176468 28.8611 30.5556 0.0195009 27.8205 29.4539 0.0212028 26.8025 28.3708 0.0227627 25.8051 27.3038 0.0241896 12.5597 16.2668 -0.087487 14.7095 18.5483 -0.082764 16.8098 20.7864 -0.0784032 18.8655 22.9867 -0.0743659 20.8816 25.1547 -0.070619 22.8629 27.2959 -0.0671337 24.8141 29.4155 -0.0638847 26.74 31.5189 -0.06085 28.6454 33.6116 -0.0580102 30.5352 35.6989 -0.0553481 32.4142 37.7865 -0.0528487 34.2875 39.8803 -0.0504983 36.1605 41.9862 -0.0482848 38.0385 44.1105 -0.0461975 39.9273 46.26 -0.0442267 40.1593 46.5949 -0.0366467 38.7605 45.1219 -0.0241345 37.4105 43.6872 -0.0125695 36.1068 42.2888 -0.00188032 34.8471 40.9247 0.00799763 33.6292 39.5929 0.0171234 32.4511 38.2915 0.0255508 31.3106 37.0185 0.0333291 30.206 35.7717 0.0405035 29.1353 34.5491 0.0471153 28.0966 33.3485 0.0532028 27.0883 32.1675 0.0588011 26.1085 31.0037 0.0639424 25.1555 29.8542 0.0686568 24.2273 28.7163 0.0729719 11.3151 17.4936 -0.146767 13.4058 19.8056 -0.138832 15.4462 22.0772 -0.13151 17.4408 24.3141 -0.124735 19.3944 26.5219 -0.11845 21.3113 28.7061 -0.112607 23.1962 30.8722 -0.107161 25.0533 33.0257 -0.102077 26.8874 35.1721 -0.0973213 28.7029 37.3171 -0.0928643 30.5045 39.4664 -0.0886806 32.2969 41.626 -0.0847473 34.0851 43.8022 -0.0810441 35.8743 46.0015 -0.0775526 37.6697 48.2308 -0.0742565 37.8632 48.5953 -0.0615406 36.4878 47.0952 -0.0405366 35.1649 45.63 -0.021116 33.8919 44.198 -0.0031595 32.6664 42.7971 0.0134414 31.4861 41.4255 0.0287854 30.3488 40.081 0.0429626 29.2524 38.7618 0.0560554 28.1952 37.4656 0.0681393 27.1752 36.1901 0.0792836 26.1908 34.9331 0.0895518 25.2403 33.6919 0.0990027 24.3222 32.4639 0.10769 23.435 31.2458 0.115665 22.5773 30.0343 0.122972 10.0678 18.7177 -0.207514 12.0905 21.0542 -0.196268 14.0628 23.3535 -0.1859 15.989 25.6214 -0.176315 17.8732 27.8636 -0.16743 19.7195 30.0858 -0.159174 21.5322 32.2935 -0.151486 23.3154 34.4924 -0.144312 25.0732 36.6882 -0.137604 26.81 38.8864 -0.131321 28.5301 41.0932 -0.125425 30.2377 43.3146 -0.119884 31.9376 45.557 -0.11467 33.6345 47.8272 -0.109754 35.3332 50.1323 -0.105115 35.4865 50.5235 -0.0871382 34.1341 48.9946 -0.0574138 32.8383 47.4974 -0.0299164 31.5962 46.0301 -0.00447766 30.4052 44.5907 0.0190554 29.263 43.1774 0.040822 28.1673 41.7881 0.060949 27.1161 40.4207 0.0795524 26.1074 39.0729 0.0967384 25.1395 37.7424 0.112604 24.2108 36.4265 0.12724 23.32 35.1224 0.140727 22.4655 33.8272 0.153141 21.6464 32.5372 0.164554 20.8614 31.2487 0.175029 8.82029 19.9416 -0.270382 10.7649 22.2964 -0.255679 12.66 24.6175 -0.24214 14.5093 26.9107 -0.229638 16.3166 29.182 -0.218061 18.0855 31.437 -0.207313 19.8198 33.6813 -0.197314 21.5232 35.9207 -0.18799 23.1997 38.161 -0.179277 24.8529 40.4079 -0.171122 26.487 42.6676 -0.163474 28.1059 44.9462 -0.156291 29.7137 47.2504 -0.149532 31.3147 49.587 -0.143165 32.9135 51.9634 -0.137158 33.025 52.3779 -0.11374 31.6955 50.8181 -0.0749687 30.427 49.2867 -0.0390789 29.2164 47.782 -0.00585142 28.0608 46.302 0.0249123 26.9578 44.8447 0.053393 25.9051 43.4081 0.0797552 24.9005 41.99 0.104149 23.9423 40.5879 0.126712 23.0288 39.1993 0.14757 22.1584 37.8214 0.166839 21.3299 36.451 0.184625 20.5423 35.0847 0.201025 19.7947 33.7187 0.216131 19.0865 32.3486 0.230026 7.57587 21.1686 -0.336102 9.43083 23.5354 -0.317738 11.2384 25.8722 -0.300855 13.0015 28.1849 -0.285287 14.7233 30.4794 -0.270891 16.4071 32.7616 -0.257544 18.0561 35.0371 -0.245138 19.6736 37.3117 -0.233582 21.2629 39.5913 -0.222794 22.8276 41.8817 -0.212704 24.371 44.1892 -0.203249 25.8967 46.52 -0.194374 27.4085 48.8809 -0.186029 28.9103 51.2788 -0.178172 30.4059 53.7213 -0.170762 30.4738 54.1552 -0.141666 29.1676 52.5619 -0.0934173 27.927 50.9938 -0.0487187 26.7487 49.449 -0.00729847 25.6298 47.9256 0.0310894 24.5677 46.4216 0.0666685 23.56 44.9348 0.0996421 22.6046 43.4627 0.130196 21.6997 42.003 0.158499 20.8436 40.5526 0.184706 20.0351 39.1087 0.20896 19.2731 37.6676 0.231392 18.5569 36.2258 0.252121 17.8858 34.7787 0.271259 17.2599 33.3216 0.288908 6.33902 22.4031 -0.40551 8.09109 24.7753 -0.383209 9.79916 27.1212 -0.36275 11.4655 29.4469 -0.343919 13.0924 31.7585 -0.326534 14.6825 34.0618 -0.310441 16.2385 36.3624 -0.295504 17.7631 38.6663 -0.281607 19.2591 40.9794 -0.26865 20.7294 43.3075 -0.256543 22.1771 45.657 -0.245208 23.6052 48.0342 -0.234578 25.017 50.446 -0.224592 26.4157 52.8993 -0.215195 27.8048 55.4019 -0.206339 27.8279 55.8506 -0.171264 26.5454 54.2207 -0.112994 25.3337 52.6127 -0.0589606 24.1893 51.0246 -0.00883795 23.109 49.4545 0.0376703 22.0902 47.9003 0.0808324 21.1303 46.3596 0.120892 20.2273 44.8298 0.158071 19.3793 43.3082 0.192572 18.585 41.7918 0.22458 17.8432 40.2771 0.254264 17.153 38.7604 0.281781 16.5141 37.2375 0.307274 15.9262 35.7035 0.330873 15.3899 34.153 0.352701 5.11568 23.6512 -0.479585 6.7494 26.0212 -0.452982 8.34433 28.369 -0.428637 9.90164 30.7006 -0.406282 11.4228 33.0222 -0.385688 12.9096 35.3396 -0.366658 14.364 37.6586 -0.349027 15.788 39.9851 -0.332649 17.1838 42.3249 -0.317399 18.5537 44.684 -0.303169 19.9003 47.0689 -0.289863 21.2259 49.4858 -0.277397 22.5333 51.9416 -0.265696 23.8252 54.4435 -0.254696 25.1045 56.9992 -0.244338 25.0815 57.4572 -0.202914 23.8238 55.7869 -0.133954 22.6426 54.1352 -0.0699414 21.5341 52.5 -0.0104908 20.495 50.8792 0.0447464 19.5225 49.2706 0.0960859 18.6141 47.6717 0.143814 17.7678 46.0796 0.18819 16.9817 44.4914 0.229451 16.2546 42.9038 0.267814 15.5856 41.3129 0.303477 14.9741 39.7147 0.33662 14.4201 38.1045 0.36741 13.9239 36.4769 0.396002 13.4865 34.8258 0.422534 3.91354 24.9204 -0.559504 5.41077 27.2798 -0.528113 6.8766 29.6211 -0.499478 8.31086 31.9505 -0.473257 9.71388 34.274 -0.449162 11.0864 36.5976 -0.42695 12.4294 38.927 -0.406412 13.7442 41.2682 -0.387371 15.0323 43.6269 -0.369673 16.2952 46.0093 -0.353184 17.5348 48.4217 -0.337787 18.7529 50.8704 -0.323381 19.9515 53.3623 -0.309877 21.1329 55.9047 -0.297194 22.2991 58.5052 -0.285262 22.2291 58.9659 -0.237042 20.9976 57.2508 -0.156583 19.849 55.5508 -0.0818128 18.7792 53.8639 -0.0122804 17.7848 52.1878 0.0524193 16.8627 50.5199 0.112652 16.0105 48.8577 0.168749 15.2262 47.198 0.221012 14.5081 45.5376 0.269712 13.8551 43.8729 0.315099 13.2666 42.1996 0.357401 12.7423 40.5133 0.396825 12.2827 38.8087 0.433562 11.8886 37.08 0.467788 11.5617 35.3204 0.499663 2.74264 26.221 -0.64671 4.08179 28.5596 -0.609889 5.39976 30.8845 -0.576427 6.6946 33.2019 -0.54589 7.96515 35.5178 -0.517916 9.21085 37.8382 -0.4922 10.4316 40.1687 -0.468483 11.6277 42.5153 -0.446545 12.7996 44.8839 -0.426197 13.9483 47.2803 -0.407275 15.0746 49.7109 -0.389638 16.1798 52.1822 -0.373162 17.2652 54.7008 -0.357738 18.3322 57.274 -0.343273 19.3824 59.9094 -0.329681 19.265 60.3652 -0.274125 18.0619 58.5999 -0.181203 16.9488 56.8463 -0.0947453 15.9213 55.1023 -0.0142327 14.9758 53.3652 0.0608026 14.1093 51.6325 0.130781 13.3193 49.9011 0.196083 12.6037 48.1678 0.257051 11.9612 46.4288 0.313997 11.3908 44.6802 0.367206 10.8922 42.9176 0.416936 10.4656 41.1357 0.463423 10.1119 39.329 0.506883 9.8326 37.491 0.547514 9.63001 35.6143 0.585497 1.61612 27.5658 -0.743014 2.77118 29.8713 -0.6999 3.91896 32.1678 -0.660899 5.05514 34.4615 -0.625454 6.17659 36.7584 -0.593104 7.2811 39.0643 -0.563466 8.36713 41.3848 -0.536215 9.43373 43.7259 -0.511078 10.4804 46.0932 -0.487821 11.5069 48.4928 -0.466245 12.5133 50.9307 -0.446175 13.5001 53.4133 -0.427463 14.4677 55.9474 -0.409977 15.4168 58.54 -0.393603 16.3483 61.1987 -0.37824 16.1835 61.6405 -0.314706 15.0118 59.8187 -0.208176 13.9381 58.0052 -0.108932 12.9577 56.1977 -0.0163772 12.0668 54.3934 0.0700249 11.2623 52.5893 0.150755 10.5418 50.782 0.226245 9.90329 48.9681 0.296887 9.34562 47.1434 0.363035 8.86815 45.3036 0.425008 8.47089 43.4437 0.483099 8.15457 41.5582 0.537574 7.92059 39.6409 0.588676 7.77122 37.6847 0.636627 7.70958 35.6815 0.68163 0.551295 28.9724 -0.850735 1.49046 31.2292 -0.80016 2.44113 33.4823 -0.754664 3.39579 35.7378 -0.71352 4.34867 38.0016 -0.676138 5.29536 40.2792 -0.642028 6.23251 42.5763 -0.61078 7.15761 44.8986 -0.582052 8.06876 47.2515 -0.555553 8.96459 49.6411 -0.531037 9.84415 52.0731 -0.50829 10.7068 54.554 -0.487131 11.5522 57.0902 -0.4674 12.3802 59.6886 -0.448959 13.1907 62.3568 -0.431688 12.9796 62.7738 -0.359412 11.8434 60.8881 -0.23792 10.8141 59.0075 -0.124595 9.88674 57.1293 -0.0187478 9.05745 55.2504 0.0802327 8.32302 53.3674 0.172895 7.68103 51.4768 0.25973 7.12975 49.5744 0.341182 6.6682 47.6561 0.417649 6.29609 45.7167 0.489493 6.0139 43.7511 0.557042 5.82286 41.7531 0.620595 5.72509 39.7159 0.680422 5.72359 37.632 0.736772 5.82245 35.4927 0.789871 -0.428608 30.4639 -0.972914 0.255012 32.6517 -0.913271 0.975666 34.8423 -0.859976 1.72129 37.0414 -0.81207 2.48252 39.2545 -0.768777 3.25204 41.4869 -0.729465 4.02408 43.7441 -0.69361 4.79411 46.0314 -0.660778 5.55855 48.3541 -0.630604 6.31456 50.7178 -0.602778 7.0599 53.1283 -0.577039 7.7928 55.5916 -0.553162 8.51187 58.114 -0.530954 9.216 60.7022 -0.510245 9.90434 63.3634 -0.490892 9.64898 63.743 -0.408966 8.55362 61.7848 -0.270919 7.57517 59.8288 -0.141987 6.70852 57.8715 -0.0213831 5.94955 55.9097 0.0915943 5.29503 53.9396 0.197569 4.74264 51.9571 0.2971 4.29084 49.9578 0.390687 3.93895 47.9369 0.478783 3.68709 45.889 0.561791 3.53625 43.8084 0.640082 3.48831 41.6883 0.713987 3.54609 39.5217 0.78381 3.71351 37.3001 0.849827 3.99563 35.0144 0.912289 -1.29196 32.072 -1.11364 -0.914294 34.1638 -1.04267 -0.464677 36.2667 -0.979769 0.0383222 38.3858 -0.923642 0.580268 40.5261 -0.873249 1.14983 42.6922 -0.827756 1.73803 44.8891 -0.786482 2.3377 47.1215 -0.748868 2.94306 49.3946 -0.714447 3.54945 51.7134 -0.682831 4.15304 54.0835 -0.653691 4.75071 56.5103 -0.626748 5.33985 59 -0.601762 5.9183 61.5589 -0.57853 6.48424 64.1937 -0.556872 6.18816 64.5211 -0.464218 5.14069 62.4808 -0.307734 4.22145 60.4397 -0.161406 3.42504 58.3941 -0.0243281 2.74718 56.3401 0.104304 2.18467 54.2735 0.225203 1.73527 52.1898 0.339004 1.39772 50.0841 0.446273 1.17167 47.9511 0.54752 1.05775 45.785 0.6432 1.05751 43.5794 0.733728 1.17354 41.3274 0.819474 1.40952 39.0209 0.900777 1.7703 36.6514 0.977944 2.26206 34.2088 1.05125 -1.99463 33.8407 -1.27853 -1.98871 35.7992 -1.193 -1.86232 37.7809 -1.11795 -1.64373 39.7893 -1.05156 -1.35468 41.828 -0.992432 -1.01215 43.901 -0.939423 -0.629566 46.012 -0.891633 -0.217624 48.1652 -0.848327 0.21504 50.365 -0.808903 0.661394 52.6158 -0.772861 1.11566 54.9226 -0.739783 1.57304 57.2905 -0.709319 2.02953 59.7249 -0.68117 2.4817 62.2318 -0.655083 2.92664 64.8176 -0.630838 2.59531 65.0754 -0.526165 1.60483 62.942 -0.349025 0.755315 60.8052 -0.183198 0.0410313 58.6608 -0.0276352 -0.542423 56.5042 0.118589 -0.998244 54.3309 0.25629 -1.32849 52.1358 0.386193 -1.53414 49.9135 0.508941 -1.6151 47.6582 0.62511 -1.57023 45.3636 0.735215 -1.39728 43.0227 0.839719 -1.09288 40.6282 0.939039 -0.652438 38.1715 1.03355 -0.0700489 35.6434 1.12359 0.661654 33.0334 1.20948 -299.688 -4.53447 3.78181 -306.692 2.26889 3.20901 -313.782 7.51469 2.78222 -320.969 11.5189 2.46343 -328.264 14.5257 2.22378 -335.679 16.7265 2.04108 -343.226 18.2734 1.89815 -350.917 19.2884 1.78153 -358.766 19.8707 1.6806 -366.786 20.1017 1.58698 -374.992 20.0485 1.49397 -383.398 19.7675 1.39623 -392.022 19.3057 1.28947 -400.879 18.7033 1.17024 -409.989 17.9946 1.03576 -417.554 17.737 1.13104 -423.576 17.7516 1.42077 -429.881 17.4784 1.64645 -436.487 16.9511 1.80822 -443.413 16.1987 1.90612 -450.678 15.2463 1.94007 -458.306 14.1154 1.90982 -466.321 12.8246 1.81497 -474.75 11.3899 1.6549 -483.623 9.82521 1.4288 -492.971 8.14219 1.13558 -502.831 6.35092 0.773924 -513.243 4.45981 0.342174 -524.249 2.47587 -0.161653 -535.9 0.40478 -0.739925 -288.357 -13.5586 2.56621 -296.275 -9.14398 2.14857 -304.173 -5.89759 1.8434 -312.078 -3.58878 1.62123 -320.013 -2.03636 1.45937 -328 -1.09626 1.34026 -336.058 -0.652611 1.25018 -344.206 -0.611375 1.17834 -352.465 -0.895478 1.11623 -360.851 -1.44124 1.05715 -369.383 -2.19562 0.995745 -378.081 -3.11412 0.927805 -386.963 -4.1591 0.849984 -396.049 -5.29853 0.759644 -405.36 -6.50492 0.654712 -413.333 -7.23656 0.751269 -419.968 -7.64681 1.01817 -426.866 -8.28194 1.228 -434.045 -9.11406 1.38124 -441.528 -10.1191 1.47829 -449.339 -11.2762 1.51945 -457.502 -12.5674 1.50492 -466.047 -13.9771 1.43477 -475.001 -15.4917 1.3089 -484.399 -17.0996 1.12706 -494.276 -18.7909 0.888795 -504.672 -20.557 0.593452 -515.629 -22.3905 0.240126 -527.197 -24.2854 -0.172353 -539.428 -26.2367 -0.645456 -277.683 -23.24 1.64655 -286.269 -20.831 1.3425 -294.765 -19.2946 1.12657 -303.205 -18.4603 0.975298 -311.618 -18.1925 0.870504 -320.031 -18.3821 0.797988 -328.47 -18.9406 0.74662 -336.957 -19.7958 0.70764 -345.515 -20.888 0.674148 -354.165 -22.1675 0.640704 -362.929 -23.5931 0.603034 -371.827 -25.1299 0.557787 -380.88 -26.7485 0.50236 -390.111 -28.4237 0.434746 -399.542 -30.134 0.353425 -407.813 -31.3578 0.448607 -414.926 -32.2267 0.692825 -422.281 -33.2692 0.886361 -429.901 -34.4627 1.02994 -437.809 -35.7879 1.12424 -446.032 -37.228 1.16988 -454.598 -38.7686 1.16738 -463.536 -40.3973 1.11717 -472.879 -42.1034 1.01957 -482.663 -43.8779 0.874773 -492.925 -45.713 0.682812 -503.71 -47.6022 0.443565 -515.063 -49.5402 0.156723 -527.036 -51.5227 -0.17823 -539.687 -53.5463 -0.562044 -267.463 -33.3756 0.956073 -276.533 -32.6727 0.736067 -285.465 -32.6137 0.585982 -294.294 -33.0717 0.486814 -303.056 -33.9447 0.42373 -311.779 -35.1502 0.3851 -320.491 -36.6209 0.361785 -329.217 -38.3014 0.346594 -337.982 -40.1459 0.333876 -346.81 -42.1166 0.319207 -355.722 -44.1815 0.299137 -364.741 -46.3141 0.271006 -373.891 -48.4918 0.232789 -383.194 -50.6957 0.182978 -392.673 -52.9095 0.120483 -401.146 -54.6344 0.212279 -408.617 -55.9836 0.434176 -416.311 -57.4651 0.611242 -424.253 -59.0614 0.744381 -432.468 -60.7575 0.834469 -440.985 -62.5407 0.882342 -449.833 -64.4001 0.888774 -459.044 -66.3268 0.854471 -468.653 -68.313 0.78005 -478.696 -70.3526 0.666036 -489.216 -72.4406 0.512841 -500.257 -74.5731 0.320752 -511.869 -76.7474 0.0899202 -524.107 -78.9617 -0.179661 -537.032 -81.2151 -0.488173 -257.55 -43.818 0.445773 -266.962 -44.5818 0.288305 -276.201 -45.8097 0.18683 -285.305 -47.4072 0.125749 -294.31 -49.2979 0.0928244 -303.246 -51.4195 0.0784394 -312.141 -53.7214 0.0750273 -321.023 -56.1617 0.076644 -329.917 -58.7061 0.0786368 -338.847 -61.326 0.077387 -347.837 -63.9977 0.0701081 -356.91 -66.7015 0.0546872 -366.09 -69.4209 0.0295582 -375.401 -72.1422 -0.00639926 -384.867 -74.8539 -0.0539406 -393.459 -77.0816 0.0329441 -401.182 -78.9228 0.233015 -409.11 -80.8637 0.393624 -417.269 -82.8916 0.51579 -425.687 -84.9955 0.600523 -434.393 -87.1667 0.648805 -443.417 -89.398 0.66158 -452.794 -91.6836 0.639742 -462.558 -94.0192 0.584123 -472.749 -96.4017 0.495486 -483.411 -98.8292 0.374512 -494.59 -101.301 0.221793 -506.337 -103.817 0.0378183 -518.712 -106.38 -0.177035 -531.778 -108.99 -0.422516 -247.834 -54.458 0.078738 -257.476 -56.4931 -0.0321552 -266.92 -58.8493 -0.0979471 -276.205 -61.4566 -0.131548 -285.365 -64.2581 -0.143119 -294.433 -67.2078 -0.14066 -303.436 -70.2682 -0.130462 -312.403 -73.4083 -0.117459 -321.358 -76.6031 -0.10549 -330.327 -79.832 -0.0975208 -339.334 -83.0779 -0.0958027 -348.403 -86.3272 -0.102011 -357.558 -89.5686 -0.117348 -366.822 -92.793 -0.142631 -376.221 -95.9933 -0.17836 -384.857 -98.72 -0.0975409 -392.74 -101.057 0.081267 -400.81 -103.469 0.225554 -409.095 -105.947 0.336402 -417.623 -108.484 0.41489 -426.425 -111.076 0.462087 -435.531 -113.718 0.479034 -444.977 -116.408 0.466741 -454.8 -119.146 0.426176 -465.039 -121.932 0.358256 -475.74 -124.766 0.263843 -486.95 -127.653 0.143733 -498.724 -130.594 -0.00134638 -511.121 -133.597 -0.170747 -524.208 -136.666 -0.363908 -238.234 -65.2132 -0.173477 -248.013 -68.3575 -0.249835 -257.578 -71.7081 -0.289776 -266.965 -75.2136 -0.304021 -276.208 -78.8329 -0.301027 -285.339 -82.5325 -0.287459 -294.387 -86.2856 -0.268552 -303.377 -90.0704 -0.248401 -312.337 -93.8694 -0.230175 -321.291 -97.6685 -0.216299 -330.263 -101.457 -0.20859 -339.277 -105.226 -0.208371 -348.357 -108.968 -0.216557 -357.527 -112.68 -0.233731 -366.812 -116.357 -0.2602 -375.43 -119.574 -0.18632 -383.39 -122.405 -0.0281913 -391.521 -125.292 0.0999844 -399.851 -128.23 0.1993 -408.408 -131.217 0.270854 -417.224 -134.251 0.315742 -426.33 -137.332 0.335046 -435.762 -140.461 0.329827 -445.556 -143.64 0.301118 -455.755 -146.873 0.249919 -466.403 -150.166 0.177193 -477.551 -153.524 0.0838589 -489.252 -156.956 -0.02921 -501.569 -160.47 -0.161192 -514.569 -164.078 -0.311321 -228.686 -76.0208 -0.33327 -238.527 -80.138 -0.384282 -248.141 -84.3683 -0.405928 -257.564 -88.6754 -0.407097 -266.828 -93.0304 -0.394812 -275.964 -97.4102 -0.374609 -285 -101.797 -0.350831 -293.963 -106.175 -0.326862 -302.877 -110.535 -0.305309 -311.768 -114.868 -0.288148 -320.66 -119.168 -0.276837 -329.575 -123.43 -0.272413 -338.539 -127.653 -0.275567 -347.574 -131.834 -0.286701 -356.706 -135.974 -0.305983 -365.249 -139.671 -0.239699 -373.215 -142.989 -0.101678 -381.336 -146.349 0.0106335 -389.64 -149.751 0.0982956 -398.156 -153.196 0.162381 -406.914 -156.686 0.203963 -415.946 -160.223 0.224111 -425.289 -163.813 0.223882 -434.98 -167.462 0.204316 -445.061 -171.176 0.166434 -455.576 -174.964 0.11123 -466.576 -178.837 0.0396746 -478.118 -182.807 -0.0472914 -490.262 -186.887 -0.148757 -503.079 -191.094 -0.263842 -219.143 -86.8325 -0.418647 -228.98 -91.8063 -0.45138 -238.582 -96.8174 -0.460573 -247.983 -101.841 -0.453546 -257.214 -106.859 -0.436084 -266.305 -111.857 -0.412748 -275.281 -116.822 -0.38711 -284.17 -121.748 -0.361945 -292.996 -126.629 -0.339378 -301.783 -131.461 -0.321005 -310.555 -136.243 -0.307987 -319.334 -140.973 -0.30113 -328.144 -145.654 -0.300948 -337.009 -150.287 -0.307708 -345.953 -154.