<?xml version="1.0"?> 
<VTKFile type="StructuredGrid" version="0.1"> 
<StructuredGrid WholeExtent="0 14 0 14 0 29"> 
<Piece Extent="0 14 0 14 0 29"> 
<PointData>
<DataArray type="Float32" Name="hfield" format="ascii" NumberOfComponents="3"> 
3964.69 129.265 6.65977e-10 4098.18 -75.5801 7.98954e-10 4231.68 -193.255 9.03116e-10 4365.17 -253.28 9.86662e-10 4498.67 -273.939 1.05025e-09 4632.16 -267.157 1.10303e-09 4765.66 -241.047 1.14312e-09 4899.15 -201.319 1.18457e-09 4809.98 -218.638 1.19069e-09 4720.81 -217.019 1.19586e-09 4631.64 -199.129 1.20607e-09 4542.48 -167.026 1.20988e-09 4453.31 -122.323 1.2032e-09 4364.14 -66.304 1.20676e-09 4274.97 0 1.21008e-09 3665.05 377.545 6.14665e-10 3852.35 294.303 7.45642e-10 4031.36 261.206 8.4475e-10 4204.14 261.494 9.24578e-10 4372.06 284.184 9.85248e-10 4536.04 321.784 1.03377e-09 4696.73 369.019 1.06949e-09 4854.62 422.071 1.10976e-09 4789.4 395.098 1.12878e-09 4723.1 381.362 1.1279e-09 4655.96 378.839 1.14404e-09 4588.18 385.933 1.16224e-09 4519.91 401.372 1.15706e-09 4451.28 424.126 1.16072e-09 4382.39 453.354 1.16311e-09 3393.83 654.245 5.82601e-10 3610.92 658.456 7.08842e-10 3816.25 690.257 8.06284e-10 4012.28 739.716 8.76477e-10 4200.7 800.071 9.40112e-10 4382.71 866.581 9.84667e-10 4559.16 935.832 1.0242e-09 4730.72 1005.32 1.04432e-09 4681.95 974.124 1.07236e-09 4631.39 951.782 1.08998e-09 4579.39 936.811 1.10929e-09 4526.24 928.026 1.10264e-09 4472.18 924.473 1.11976e-09 4417.39 925.373 1.11362e-09 4362.02 930.083 1.11567e-09 3134.63 942.961 5.63726e-10 3366.68 1012.44 6.85722e-10 3585.58 1095.05 7.79267e-10 3793.63 1184.83 8.53377e-10 3992.44 1277.62 9.06293e-10 4183.18 1370.46 9.55014e-10 4366.74 1461.21 9.80822e-10 4543.8 1548.29 1.00909e-09 4505.74 1516.07 1.03652e-09 4465.45 1489.36 1.05923e-09 4423.33 1467.12 1.08165e-09 4379.69 1448.52 1.09584e-09 4334.79 1432.89 1.09719e-09 4288.84 1419.67 1.10055e-09 4242.01 1408.42 1.10045e-09 2878.42 1234.67 5.53758e-10 3115.28 1353.92 6.73483e-10 3338.68 1476.73 7.63252e-10 3550.51 1599.61 8.36396e-10 3752.15 1720.1 8.9143e-10 3944.64 1836.45 9.27812e-10 4128.76 1947.39 9.56158e-10 4305.14 2052.02 9.7924e-10 4273.51 2020.49 1.01529e-09 4239.48 1991.95 1.04644e-09 4203.43 1965.7 1.06087e-09 4165.63 1941.23 1.07992e-09 4126.34 1918.07 1.08301e-09 4085.76 1895.89 1.08885e-09 4044.05 1874.39 1.08598e-09 2620.02 1524.18 5.52867e-10 2853.99 1681.75 6.71289e-10 3074.89 1836.42 7.6144e-10 3284.13 1986.35 8.29398e-10 3482.77 2130.25 8.8431e-10 3671.61 2267.2 9.21395e-10 3851.3 2396.59 9.50628e-10 4022.34 2517.96 9.69657e-10 3994.06 2487.9 1.01267e-09 3963.46 2458.91 1.04445e-09 3930.85 2430.62 1.06999e-09 3896.46 2402.73 1.08628e-09 3860.48 2374.98 1.09568e-09 3823.09 2347.19 1.09718e-09 3784.42 2319.21 1.09642e-09 2356.42 1808.5 5.58801e-10 2580.99 1995.46 6.77993e-10 2793.54 2175.15 7.69258e-10 2994.93 2346.9 8.38471e-10 3185.81 2510.25 8.90121e-10 3366.72 2664.9 9.30202e-10 3538.07 2810.69 9.57096e-10 3700.24 2947.51 9.74207e-10 3673.15 2919.01 1.02662e-09 3644.1 2890.19 1.06657e-09 3613.27 2860.9 1.09592e-09 3580.82 2831.03 1.11531e-09 3546.87 2800.49 1.12704e-09 3511.54 2769.22 1.131e-09 3474.93 2737.17 1.12953e-09 2086.07 2086.07 5.72229e-10 2295.07 2295.07 6.9281e-10 2493.9 2493.9 7.85101e-10 2682.74 2682.74 8.55295e-10 2861.76 2861.76 9.07913e-10 3031.13 3031.13 9.46529e-10 3191.01 3191.01 9.73732e-10 3341.58 3341.58 9.91744e-10 3314.24 3314.24 1.05325e-09 3285.58 3285.58 1.10012e-09 3255.65 3255.65 1.13472e-09 3224.47 3224.47 1.15889e-09 3192.1 3192.1 1.17434e-09 3158.56 3158.56 1.18235e-09 3123.9 3123.9 1.18401e-09 1808.5 2356.42 5.19466e-10 1995.46 2580.99 6.27327e-10 2175.15 2793.54 7.09595e-10 2346.9 2994.93 7.72772e-10 2510.25 3185.81 8.19629e-10 2664.9 3366.72 8.54266e-10 2810.69 3538.07 8.78e-10 2947.51 3700.24 8.94252e-10 2919.01 3673.15 9.47981e-10 2890.19 3644.1 9.89355e-10 2860.9 3613.27 1.02084e-09 2831.03 3580.82 1.04193e-09 2800.49 3546.87 1.05664e-09 2769.22 3511.54 1.0628e-09 2737.17 3474.93 1.06469e-09 1524.18 2620.02 4.72411e-10 1681.75 2853.99 5.68907e-10 1836.42 3074.89 6.42782e-10 1986.35 3284.13 6.99537e-10 2130.25 3482.77 7.40531e-10 2267.2 3671.61 7.73125e-10 2396.59 3851.3 7.95822e-10 2517.96 4022.34 8.09442e-10 2487.9 3994.06 8.61582e-10 2458.91 3963.46 8.96037e-10 2430.62 3930.85 9.27358e-10 2402.73 3896.46 9.50007e-10 2374.98 3860.48 9.60753e-10 2347.19 3823.09 9.68458e-10 2319.21 3784.42 9.73376e-10 1234.67 2878.42 4.29429e-10 1353.92 3115.28 5.13797e-10 1476.73 3338.68 5.80861e-10 1599.61 3550.51 6.28486e-10 1720.1 3752.15 6.65321e-10 1836.45 3944.64 6.95406e-10 1947.39 4128.76 7.18571e-10 2052.02 4305.14 7.3172e-10 2020.49 4273.51 7.78627e-10 1991.95 4239.48 8.09867e-10 1965.7 4203.43 8.38874e-10 1941.23 4165.63 8.53163e-10 1918.07 4126.34 8.72157e-10 1895.89 4085.76 8.80983e-10 1874.39 4044.05 8.85706e-10 942.961 3134.63 3.90356e-10 1012.44 3366.68 4.63025e-10 1095.05 3585.58 5.19252e-10 1184.83 3793.63 5.62438e-10 1277.62 3992.44 5.94633e-10 1370.46 4183.18 6.18751e-10 1461.21 4366.74 6.3863e-10 1548.29 4543.8 6.53689e-10 1516.07 4505.74 6.92444e-10 1489.36 4465.45 7.26948e-10 1467.12 4423.33 7.45574e-10 1448.52 4379.69 7.62388e-10 1432.89 4334.79 7.77244e-10 1419.67 4288.84 7.92541e-10 1408.42 4242.01 7.99525e-10 654.245 3393.83 3.52799e-10 658.456 3610.92 4.12639e-10 690.257 3816.25 4.6009e-10 739.716 4012.28 4.97478e-10 800.071 4200.7 5.22788e-10 866.581 4382.71 5.49538e-10 935.832 4559.16 5.64539e-10 1005.32 4730.72 5.78122e-10 974.124 4681.95 6.0772e-10 951.782 4631.39 6.35516e-10 936.811 4579.39 6.49213e-10 928.026 4526.24 6.73127e-10 924.473 4472.18 6.87743e-10 925.373 4417.39 7.04371e-10 930.083 4362.02 7.08302e-10 377.545 3665.05 3.15656e-10 294.303 3852.35 3.6312e-10 261.206 4031.36 3.97811e-10 261.494 4204.14 4.26427e-10 284.184 4372.06 4.48139e-10 321.784 4536.04 4.72181e-10 369.019 4696.73 4.83642e-10 422.071 4854.62 4.88147e-10 395.098 4789.4 5.21299e-10 381.362 4723.1 5.43726e-10 378.839 4655.96 5.62074e-10 385.933 4588.18 5.71959e-10 401.372 4519.91 5.95533e-10 424.126 4451.28 6.01637e-10 453.354 4382.39 6.10974e-10 129.265 3964.69 2.76486e-10 -75.5801 4098.18 3.08604e-10 -193.255 4231.68 3.30642e-10 -253.28 4365.17 3.468e-10 -273.939 4498.67 3.63811e-10 -267.157 4632.16 3.78053e-10 -241.047 4765.66 3.94154e-10 -201.319 4899.15 3.9994e-10 -218.638 4809.98 4.16428e-10 -217.019 4720.81 4.30773e-10 -199.129 4631.64 4.3753e-10 -167.026 4542.48 4.48958e-10 -122.323 4453.31 4.691e-10 -66.304 4364.14 4.77883e-10 1.07566e-12 4274.97 4.85613e-10 3819.28 124.525 8.63793e-10 3947.88 -72.8081 9.7811e-10 4076.48 -186.167 1.0669e-09 4205.08 -243.991 1.13799e-09 4333.68 -263.892 1.19373e-09 4462.28 -257.359 1.24012e-09 4590.87 -232.207 1.27917e-09 4719.47 -193.936 1.31268e-09 4633.57 -210.62 1.36468e-09 4547.68 -209.06 1.41565e-09 4461.78 -191.825 1.46046e-09 4375.88 -160.9 1.48965e-09 4289.98 -117.837 1.52052e-09 4204.08 -63.8723 1.54389e-09 4118.18 -7.77155e-13 1.56927e-09 3530.63 363.698 7.7599e-10 3711.06 283.509 8.97681e-10 3883.5 251.626 9.87427e-10 4049.95 251.904 1.06342e-09 4211.71 273.761 1.11304e-09 4369.68 309.983 1.15992e-09 4524.48 355.485 1.20225e-09 4676.57 406.591 1.23027e-09 4613.75 380.608 1.28754e-09 4549.88 367.376 1.32614e-09 4485.2 364.945 1.36401e-09 4419.91 371.779 1.40638e-09 4354.14 386.651 1.42773e-09 4288.03 408.571 1.4457e-09 4221.67 436.727 1.46455e-09 3269.36 630.251 7.13908e-10 3478.49 634.307 8.40914e-10 3676.29 664.942 9.36036e-10 3865.13 712.586 1.01327e-09 4046.64 770.729 1.07205e-09 4221.97 834.799 1.11666e-09 4391.95 901.511 1.14975e-09 4557.22 968.449 1.17903e-09 4510.24 938.398 1.23227e-09 4461.53 916.876 1.26686e-09 4411.44 902.453 1.31517e-09 4360.24 893.99 1.34385e-09 4308.16 890.568 1.35594e-09 4255.38 891.435 1.37366e-09 4202.04 895.972 1.39123e-09 3019.67 908.377 6.73322e-10 3243.2 975.308 8.02854e-10 3454.08 1054.89 9.02279e-10 3654.5 1141.37 9.77068e-10 3846.01 1230.76 1.03966e-09 4029.76 1320.2 1.08371e-09 4206.59 1407.62 1.11436e-09 4377.15 1491.51 1.13743e-09 4340.49 1460.47 1.20009e-09 4301.68 1434.73 1.24105e-09 4261.11 1413.31 1.27792e-09 4219.07 1395.4 1.30602e-09 4175.81 1380.34 1.31947e-09 4131.54 1367.61 1.33275e-09 4086.43 1356.77 1.33637e-09 2772.86 1189.39 6.44021e-10 3001.03 1304.27 7.76508e-10 3216.23 1422.58 8.77579e-10 3420.29 1540.94 9.58802e-10 3614.54 1657.01 1.01667e-09 3799.97 1769.1 1.06225e-09 3977.34 1875.97 1.09608e-09 4147.25 1976.76 1.11739e-09 4116.77 1946.39 1.17773e-09 4084 1918.89 1.22524e-09 4049.27 1893.61 1.25603e-09 4012.86 1870.03 1.28825e-09 3975.01 1847.73 1.29698e-09 3935.91 1826.36 1.30933e-09 3895.73 1805.65 1.31356e-09 2523.93 1468.28 6.26461e-10 2749.32 1620.07 7.64746e-10 2962.12 1769.07 8.70139e-10 3163.68 1913.5 9.51044e-10 3355.04 2052.12 1.0137e-09 3536.96 2184.05 1.05912e-09 3710.05 2308.69 1.09292e-09 3874.82 2425.61 1.1169e-09 3847.57 2396.65 1.17711e-09 3818.1 2368.73 1.22529e-09 3786.69 2341.48 1.25757e-09 3753.55 2314.61 1.28425e-09 3718.9 2287.88 1.30062e-09 3682.87 2261.11 1.30631e-09 3645.63 2234.15 1.30823e-09 2270 1742.17 6.16701e-10 2486.33 1922.27 7.60653e-10 2691.09 2095.38 8.71796e-10 2885.09 2260.83 9.56258e-10 3068.97 2418.19 1.0203e-09 3243.24 2567.17 1.06798e-09 3408.31 2707.6 1.10203e-09 3564.53 2839.41 1.12622e-09 3538.44 2811.96 1.19034e-09 3510.45 2784.19 1.23863e-09 3480.76 2755.98 1.27667e-09 3449.49 2727.2 1.30161e-09 3416.79 2697.78 1.31616e-09 3382.76 2667.66 1.3241e-09 3347.49 2636.78 1.32426e-09 2009.57 2009.57 6.15747e-10 2210.89 2210.89 7.67662e-10 2402.43 2402.43 8.84431e-10 2584.35 2584.35 9.73991e-10 2756.8 2756.8 1.04171e-09 2919.96 2919.96 1.09202e-09 3073.98 3073.98 1.12816e-09 3219.03 3219.03 1.15292e-09 3192.69 3192.69 1.22402e-09 3165.08 3165.08 1.2783e-09 3136.24 3136.24 1.31822e-09 3106.22 3106.22 1.3462e-09 3075.03 3075.03 1.36396e-09 3042.72 3042.72 1.37313e-09 3009.33 3009.33 1.37497e-09 1742.17 2270 5.75554e-10 1922.27 2486.33 7.09536e-10 2095.38 2691.09 8.12572e-10 2260.83 2885.09 8.89749e-10 2418.19 3068.97 9.50687e-10 2567.17 3243.24 9.9543e-10 2707.6 3408.31 1.02577e-09 2839.41 3564.53 1.04746e-09 2811.96 3538.44 1.10478e-09 2784.19 3510.45 1.15042e-09 2755.98 3480.76 1.1829e-09 2727.2 3449.49 1.20524e-09 2697.78 3416.79 1.21866e-09 2667.66 3382.76 1.22523e-09 2636.78 3347.49 1.2257e-09 1468.28 2523.93 5.40917e-10 1620.07 2749.32 6.57463e-10 1769.07 2962.12 7.48747e-10 1913.5 3163.68 8.18106e-10 2052.12 3355.04 8.69511e-10 2184.05 3536.96 9.06482e-10 2308.69 3710.05 9.35009e-10 2425.61 3874.82 9.568e-10 2396.65 3847.57 1.00345e-09 2368.73 3818.1 1.03764e-09 2341.48 3786.69 1.06412e-09 2314.61 3753.55 1.08231e-09 2287.88 3718.9 1.09474e-09 2261.11 3682.87 1.09536e-09 2234.15 3645.63 1.09786e-09 1189.39 2772.86 5.13465e-10 1304.27 3001.03 6.15672e-10 1422.58 3216.23 6.94523e-10 1540.94 3420.29 7.50868e-10 1657.01 3614.54 7.95512e-10 1769.1 3799.97 8.2675e-10 1875.97 3977.34 8.5517e-10 1976.76 4147.25 8.7264e-10 1946.39 4116.77 9.0881e-10 1918.89 4084 9.30803e-10 1893.61 4049.27 9.54328e-10 1870.03 4012.86 9.63589e-10 1847.73 3975.01 9.77729e-10 1826.36 3935.91 9.79859e-10 1805.65 3895.73 9.80512e-10 908.377 3019.67 4.93906e-10 975.308 3243.2 5.76024e-10 1054.89 3454.08 6.39476e-10 1141.37 3654.5 6.8775e-10 1230.76 3846.01 7.22462e-10 1320.2 4029.76 7.4844e-10 1407.62 4206.59 7.67849e-10 1491.51 4377.15 7.84819e-10 1460.47 4340.49 8.11095e-10 1434.73 4301.68 8.31248e-10 1413.31 4261.11 8.4616e-10 1395.4 4219.07 8.56527e-10 1380.34 4175.81 8.63061e-10 1367.61 4131.54 8.66363e-10 1356.77 4086.43 8.71271e-10 630.251 3269.36 4.78652e-10 634.307 3478.49 5.40941e-10 664.942 3676.29 5.90903e-10 712.586 3865.13 6.28524e-10 770.729 4046.64 6.55553e-10 834.799 4221.97 6.7384e-10 901.511 4391.95 6.91021e-10 968.449 4557.22 7.0506e-10 938.398 4510.24 7.19399e-10 916.876 4461.53 7.35075e-10 902.453 4411.44 7.33326e-10 893.99 4360.24 7.38153e-10 890.568 4308.16 7.41115e-10 891.435 4255.38 7.46629e-10 895.972 4202.04 7.41605e-10 363.698 3530.63 4.74364e-10 283.509 3711.06 5.18645e-10 251.626 3883.5 5.49332e-10 251.904 4049.95 5.75815e-10 273.761 4211.71 5.97485e-10 309.983 4369.68 6.15049e-10 355.485 4524.48 6.25854e-10 406.591 4676.57 6.3336e-10 380.608 4613.75 6.26039e-10 367.376 4549.88 6.22341e-10 364.945 4485.2 6.19078e-10 371.779 4419.91 6.04329e-10 386.651 4354.14 6.05875e-10 408.571 4288.03 6.06354e-10 436.727 4221.67 5.97846e-10 124.525 3819.28 4.78849e-10 -72.8081 3947.88 4.92977e-10 -186.167 4076.48 5.03388e-10 -243.991 4205.08 5.09987e-10 -263.892 4333.68 5.17398e-10 -257.359 4462.28 5.22891e-10 -232.207 4590.87 5.27569e-10 -193.936 4719.47 5.3166e-10 -210.62 4633.57 5.07844e-10 -209.06 4547.68 4.81027e-10 -191.825 4461.78 4.5754e-10 -160.9 4375.88 4.47719e-10 -117.837 4289.98 4.3381e-10 -63.8723 4204.08 4.25481e-10 2.59052e-13 4118.18 4.14113e-10 3638.42 118.628 1.05001e-09 3760.93 -69.3604 1.13016e-09 3883.44 -177.351 1.19577e-09 4005.95 -232.437 1.24229e-09 4128.46 -251.395 1.28033e-09 4250.97 -245.172 1.31043e-09 4373.48 -221.211 1.34289e-09 4495.98 -184.752 1.36064e-09 4414.15 -200.646 1.47115e-09 4332.32 -199.16 1.57344e-09 4250.49 -182.742 1.65782e-09 4168.66 -153.281 1.73734e-09 4086.83 -112.257 1.79879e-09 4005 -60.8476 1.86287e-09 3923.17 -2.46784e-13 1.90865e-09 3363.44 346.476 9.19121e-10 3535.33 270.084 1.02166e-09 3699.6 239.71 1.09847e-09 3858.17 239.975 1.15875e-09 4012.27 260.798 1.19996e-09 4162.75 295.304 1.241e-09 4310.22 338.651 1.26935e-09 4455.12 387.337 1.29553e-09 4395.26 362.584 1.39665e-09 4334.42 349.979 1.48707e-09 4272.81 347.663 1.55933e-09 4210.6 354.173 1.63084e-09 4147.96 368.342 1.67876e-09 4084.97 389.224 1.71951e-09 4021.75 416.046 1.76271e-09 3114.54 600.405 8.26599e-10 3313.77 604.27 9.44882e-10 3502.2 633.454 1.03515e-09 3682.1 678.842 1.10534e-09 3855.01 734.231 1.15753e-09 4022.04 795.268 1.19305e-09 4183.97 858.82 1.22657e-09 4341.42 922.588 1.25457e-09 4296.66 893.96 1.34735e-09 4250.26 873.457 1.41641e-09 4202.54 859.718 1.49002e-09 4153.77 851.656 1.53588e-09 4104.15 848.395 1.578e-09 4053.87 849.221 1.61234e-09 4003.06 853.544 1.63972e-09 2876.67 865.362 7.56255e-10 3089.62 929.123 8.85882e-10 3290.51 1004.93 9.8806e-10 3481.44 1087.32 1.06151e-09 3663.89 1172.48 1.1215e-09 3838.93 1257.68 1.16588e-09 4007.39 1340.97 1.2016e-09 4169.88 1420.88 1.22127e-09 4134.95 1391.31 1.30833e-09 4097.98 1366.79 1.3787e-09 4059.32 1346.38 1.43863e-09 4019.28 1329.32 1.47626e-09 3978.07 1314.97 1.5051e-09 3935.9 1302.85 1.53915e-09 3892.92 1292.52 1.55312e-09 2641.55 1133.07 7.04542e-10 2858.92 1242.51 8.46463e-10 3063.93 1355.21 9.52818e-10 3258.32 1467.97 1.04043e-09 3443.37 1578.55 1.10545e-09 3620.02 1685.32 1.15053e-09 3789 1787.14 1.18885e-09 3950.86 1883.15 1.21238e-09 3921.83 1854.22 1.2959e-09 3890.6 1828.02 1.35844e-09 3857.51 1803.94 1.40962e-09 3822.83 1781.48 1.44326e-09 3786.77 1760.23 1.46767e-09 3749.53 1739.87 1.49039e-09 3711.25 1720.14 1.50113e-09 2404.41 1398.75 6.65043e-10 2619.13 1543.35 8.19187e-10 2821.85 1685.3 9.37974e-10 3013.87 1822.89 1.02903e-09 3196.16 1954.94 1.0991e-09 3369.47 2080.63 1.15048e-09 3534.36 2199.37 1.18743e-09 3691.33 2310.75 1.2142e-09 3665.37 2283.16 1.29236e-09 3637.3 2256.56 1.35292e-09 3607.37 2230.6 1.40047e-09 3575.81 2205 1.43174e-09 3542.79 2179.54 1.45622e-09 3508.47 2154.04 1.46929e-09 3472.99 2128.36 1.47317e-09 2162.5 1659.67 6.35508e-10 2368.59 1831.24 8.03126e-10 2563.65 1996.15 9.32788e-10 2748.47 2153.77 1.03301e-09 2923.64 2303.68 1.10747e-09 3089.66 2445.6 1.16512e-09 3246.91 2579.39 1.2051e-09 3395.74 2704.95 1.23443e-09 3370.88 2678.8 1.31041e-09 3344.22 2652.35 1.36739e-09 3315.93 2625.47 1.41141e-09 3286.14 2598.06 1.44314e-09 3254.99 2570.03 1.46202e-09 3222.57 2541.33 1.4727e-09 3188.97 2511.92 1.47336e-09 1914.41 1914.41 6.15309e-10 2106.2 2106.2 7.97933e-10 2288.67 2288.67 9.38969e-10 2461.97 2461.97 1.04792e-09 2626.26 2626.26 1.13104e-09 2781.69 2781.69 1.1935e-09 2928.41 2928.41 1.23939e-09 3066.6 3066.6 1.27134e-09 3041.5 3041.5 1.34892e-09 3015.2 3015.2 1.40779e-09 2987.73 2987.73 1.45134e-09 2959.12 2959.12 1.4815e-09 2929.41 2929.41 1.50063e-09 2898.64 2898.64 1.51034e-09 2866.83 2866.83 1.51205e-09 1659.67 2162.5 6.06926e-10 1831.24 2368.59 7.63062e-10 1996.15 2563.65 8.83749e-10 2153.77 2748.47 9.75594e-10 2303.68 2923.64 1.0473e-09 2445.6 3089.66 1.1e-09 2579.39 3246.91 1.13887e-09 2704.95 3395.74 1.164e-09 2678.8 3370.88 1.22253e-09 2652.35 3344.22 1.26664e-09 2625.47 3315.93 1.2965e-09 2598.06 3286.14 1.31785e-09 2570.03 3254.99 1.32944e-09 2541.33 3222.57 1.33296e-09 2511.92 3188.97 1.33324e-09 1398.75 2404.41 6.06297e-10 1543.35 2619.13 7.38799e-10 1685.3 2821.85 8.40161e-10 1822.89 3013.87 9.18441e-10 1954.94 3196.16 9.77224e-10 2080.63 3369.47 1.02149e-09 2199.37 3534.36 1.05035e-09 2310.75 3691.33 1.07404e-09 2283.16 3665.37 1.11281e-09 2256.56 3637.3 1.14073e-09 2230.6 3607.37 1.16141e-09 2205 3575.81 1.17258e-09 2179.54 3542.79 1.18096e-09 2154.04 3508.47 1.17704e-09 2128.36 3472.99 1.17472e-09 1133.07 2641.55 6.15463e-10 1242.51 2858.92 7.22701e-10 1355.21 3063.93 8.08389e-10 1467.97 3258.32 8.66839e-10 1578.55 3443.37 9.12647e-10 1685.32 3620.02 9.48452e-10 1787.14 3789 9.74808e-10 1883.15 3950.86 9.91504e-10 1854.22 3921.83 1.00981e-09 1828.02 3890.6 1.02514e-09 1803.94 3857.51 1.03752e-09 1781.48 3822.83 1.03666e-09 1760.23 3786.77 1.03919e-09 1739.87 3749.53 1.03567e-09 1720.14 3711.25 1.02705e-09 865.362 2876.67 6.37203e-10 929.123 3089.62 7.18934e-10 1004.93 3290.51 7.7765e-10 1087.32 3481.44 8.2793e-10 1172.48 3663.89 8.58735e-10 1257.68 3838.93 8.85538e-10 1340.97 4007.39 9.03205e-10 1420.88 4169.88 9.18347e-10 1391.31 4134.95 9.21168e-10 1366.79 4097.98 9.1828e-10 1346.38 4059.32 9.12486e-10 1329.32 4019.28 9.07354e-10 1314.97 3978.07 9.07531e-10 1302.85 3935.9 8.89695e-10 1292.52 3892.92 8.83839e-10 600.405 3114.54 6.74881e-10 604.27 3313.77 7.26354e-10 633.454 3502.2 7.62113e-10 678.842 3682.1 7.94404e-10 734.231 3855.01 8.13618e-10 795.268 4022.04 8.28112e-10 858.82 4183.97 8.3902e-10 922.588 4341.42 8.49636e-10 893.96 4296.66 8.23413e-10 873.457 4250.26 8.0415e-10 859.718 4202.54 7.813e-10 851.656 4153.77 7.64839e-10 848.395 4104.15 7.57677e-10 849.221 4053.87 7.36857e-10 853.544 4003.06 7.16997e-10 346.476 3363.44 7.32477e-10 270.084 3535.33 7.48071e-10 239.71 3699.6 7.56435e-10 239.975 3858.17 7.68317e-10 260.798 4012.27 7.73189e-10 295.304 4162.75 7.77412e-10 338.651 4310.22 7.79888e-10 387.337 4455.12 7.80481e-10 362.584 4395.26 7.34375e-10 349.979 4334.42 6.91246e-10 347.663 4272.81 6.48511e-10 354.173 4210.6 6.04375e-10 368.342 4147.96 5.83552e-10 389.224 4084.97 5.51185e-10 416.046 4021.75 5.26576e-10 118.628 3638.42 8.24002e-10 -69.3604 3760.93 7.89887e-10 -177.351 3883.44 7.61148e-10 -232.437 4005.95 7.42769e-10 -251.395 4128.46 7.27326e-10 -245.172 4250.97 7.16608e-10 -221.211 4373.48 7.00116e-10 -184.752 4495.98 6.95498e-10 -200.646 4414.15 6.12592e-10 -199.16 4332.32 5.34003e-10 -182.742 4250.49 4.706e-10 -153.281 4168.66 4.09721e-10 -112.257 4086.83 3.64277e-10 -60.8476 4005 3.15026e-10 7.40353e-13 3923.17 2.82835e-10 3423.63 111.625 1.07892e-09 3538.9 -65.2656 1.20313e-09 3654.18 -166.881 1.29914e-09 3769.46 -218.715 1.37113e-09 3884.73 -236.554 1.43713e-09 4000.01 -230.698 1.48882e-09 4115.29 -208.151 1.53243e-09 4230.56 -173.845 1.55721e-09 4153.56 -188.801 1.65206e-09 4076.56 -187.402 1.73992e-09 3999.56 -171.953 1.81203e-09 3922.56 -144.232 1.87137e-09 3845.56 -105.63 1.93253e-09 3768.56 -57.2555 1.97584e-09 3691.56 -2.32215e-13 2.02248e-09 3164.88 326.021 9.57129e-10 3326.62 254.139 1.09271e-09 3481.2 225.559 1.19638e-09 3630.4 225.808 1.27557e-09 3775.4 245.401 1.33742e-09 3917 277.87 1.39113e-09 4055.77 318.659 1.43166e-09 4192.11 364.471 1.46474e-09 4135.79 341.179 1.54351e-09 4078.53 329.318 1.62361e-09 4020.56 327.138 1.6871e-09 3962.03 333.264 1.7459e-09 3903.08 346.597 1.7915e-09 3843.82 366.246 1.82637e-09 3784.33 391.485 1.86345e-09 2930.68 564.96 8.72787e-10 3118.14 568.597 1.01538e-09 3295.45 596.058 1.12528e-09 3464.73 638.767 1.21014e-09 3627.43 690.886 1.27756e-09 3784.6 748.319 1.32927e-09 3936.97 808.119 1.3653e-09 4085.12 868.123 1.39966e-09 4043.01 841.185 1.48696e-09 3999.35 821.893 1.54556e-09 3954.44 808.964 1.6012e-09 3908.55 801.378 1.66096e-09 3861.86 798.31 1.68771e-09 3814.55 799.087 1.71255e-09 3766.74 803.154 1.73545e-09 2706.85 814.275 8.0964e-10 2907.23 874.272 9.57483e-10 3096.26 945.608 1.07071e-09 3275.91 1023.13 1.15854e-09 3447.59 1103.26 1.22582e-09 3612.3 1183.43 1.27906e-09 3770.81 1261.8 1.31943e-09 3923.71 1337 1.34304e-09 3890.84 1309.17 1.42141e-09 3856.05 1286.1 1.4904e-09 3819.68 1266.9 1.53472e-09 3782 1250.84 1.57371e-09 3743.22 1237.34 1.59686e-09 3703.54 1225.93 1.61888e-09 3663.1 1216.21 1.63405e-09 2485.61 1066.18 7.67539e-10 2690.14 1169.15 9.22518e-10 2883.05 1275.2 1.04218e-09 3065.97 1381.31 1.13084e-09 3240.09 1485.36 1.20069e-09 3406.31 1585.83 1.255e-09 3565.31 1681.63 1.29261e-09 3717.62 1771.98 1.31894e-09 3690.3 1744.76 1.40135e-09 3660.92 1720.11 1.45844e-09 3629.79 1697.44 1.50389e-09 3597.15 1676.31 1.54012e-09 3563.22 1656.31 1.56572e-09 3528.17 1637.16 1.5768e-09 3492.16 1618.59 1.58693e-09 2262.46 1316.18 7.3644e-10 2464.5 1452.24 8.98215e-10 2655.26 1585.8 1.02362e-09 2835.95 1715.27 1.11941e-09 3007.48 1839.53 1.19008e-09 3170.55 1957.8 1.24408e-09 3325.71 2069.53 1.28448e-09 3473.41 2174.33 1.31027e-09 3448.99 2148.37 1.38749e-09 3422.57 2123.34 1.44466e-09 3394.41 2098.92 1.48655e-09 3364.71 2074.83 1.52153e-09 3333.64 2050.87 1.54078e-09 3301.35 2026.87 1.54821e-09 3267.96 2002.71 1.55458e-09 2034.84 1561.69 7.16232e-10 2228.76 1723.14 8.87104e-10 2412.31 1878.31 1.01824e-09 2586.21 2026.62 1.11853e-09 2751.05 2167.68 1.19342e-09 2907.26 2301.22 1.25005e-09 3055.23 2427.11 1.29042e-09 3195.27 2545.27 1.31843e-09 3171.87 2520.66 1.3976e-09 3146.79 2495.77 1.45541e-09 3120.17 2470.47 1.49968e-09 3092.15 2444.68 1.53003e-09 3062.83 2418.31 1.54856e-09 3032.32 2391.3 1.5595e-09 3000.71 2363.63 1.56026e-09 1801.39 1801.39 7.05491e-10 1981.86 1981.86 8.86008e-10 2153.56 2153.56 1.02495e-09 2316.63 2316.63 1.13147e-09 2471.22 2471.22 1.21239e-09 2617.47 2617.47 1.2726e-09 2755.54 2755.54 1.31607e-09 2885.56 2885.56 1.3459e-09 2861.94 2861.94 1.42725e-09 2837.2 2837.2 1.4892e-09 2811.35 2811.35 1.53478e-09 2784.43 2784.43 1.56644e-09 2756.47 2756.47 1.58637e-09 2727.52 2727.52 1.59647e-09 2697.58 2697.58 1.59803e-09 1561.69 2034.84 6.66949e-10 1723.14 2228.76 8.23547e-10 1878.31 2412.31 9.43862e-10 2026.62 2586.21 1.03575e-09 2167.68 2751.05 1.10453e-09 2301.22 2907.26 1.15632e-09 2427.11 3055.23 1.19324e-09 2545.27 3195.27 1.21795e-09 2520.66 3171.87 1.28296e-09 2495.77 3146.79 1.33036e-09 2470.47 3120.17 1.36518e-09 2444.68 3092.15 1.38773e-09 2418.31 3062.83 1.40344e-09 2391.3 3032.32 1.40747e-09 2363.63 3000.71 1.40775e-09 1316.18 2262.46 6.3749e-10 1452.24 2464.5 7.71553e-10 1585.8 2655.26 8.73093e-10 1715.27 2835.95 9.50614e-10 1839.53 3007.48 1.01183e-09 1957.8 3170.55 1.05534e-09 2069.53 3325.71 1.08268e-09 2174.33 3473.41 1.10795e-09 2148.37 3448.99 1.15627e-09 2123.34 3422.57 1.19146e-09 2098.92 3394.41 1.21772e-09 2074.83 3364.71 1.23714e-09 2050.87 3333.64 1.24602e-09 2026.87 3301.35 1.24538e-09 2002.71 3267.96 1.24729e-09 1066.18 2485.61 6.15105e-10 1169.15 2690.14 7.25173e-10 1275.2 2883.05 8.10158e-10 1381.31 3065.97 8.75666e-10 1485.36 3240.09 9.23815e-10 1585.83 3406.31 9.57928e-10 1681.63 3565.31 9.872e-10 1771.98 3717.62 1.004e-09 1744.76 3690.3 1.03168e-09 1720.11 3660.92 1.05917e-09 1697.44 3629.79 1.0794e-09 1676.31 3597.15 1.08561e-09 1656.31 3563.22 1.09175e-09 1637.16 3528.17 1.09714e-09 1618.59 3492.16 1.0923e-09 814.275 2706.85 6.02571e-10 874.272 2907.23 6.88007e-10 945.608 3096.26 7.52971e-10 1023.13 3275.91 8.02425e-10 1103.26 3447.59 8.42026e-10 1183.43 3612.3 8.677e-10 1261.8 3770.81 8.9121e-10 1337 3923.71 9.04161e-10 1309.17 3890.84 9.24268e-10 1286.1 3856.05 9.34037e-10 1266.9 3819.68 9.41942e-10 1250.84 3782 9.47808e-10 1237.34 3743.22 9.52537e-10 1225.93 3703.54 9.46029e-10 1216.21 3663.1 9.45371e-10 564.96 2930.68 5.99679e-10 568.597 3118.14 6.58075e-10 596.058 3295.45 7.02441e-10 638.767 3464.73 7.36346e-10 690.886 3627.43 7.61286e-10 748.319 3784.6 7.81176e-10 808.119 3936.97 7.95573e-10 868.123 4085.12 8.12075e-10 841.185 4043.01 7.96917e-10 821.893 3999.35 8.02291e-10 808.964 3954.44 7.93151e-10 801.378 3908.55 7.92479e-10 798.31 3861.86 7.85801e-10 799.087 3814.55 7.78557e-10 803.154 3766.74 7.70616e-10 326.021 3164.88 6.1031e-10 254.139 3326.62 6.37834e-10 225.559 3481.2 6.56456e-10 225.808 3630.4 6.74613e-10 245.401 3775.4 6.84355e-10 277.87 3917 6.90383e-10 318.659 4055.77 7.00283e-10 364.471 4192.11 7.04752e-10 341.179 4135.79 6.75994e-10 329.318 4078.53 6.53165e-10 327.138 4020.56 6.3279e-10 333.264 3962.03 6.0914e-10 346.597 3903.08 5.96702e-10 366.246 3843.82 5.80639e-10 391.485 3784.33 5.662e-10 111.625 3423.63 6.38323e-10 -65.2656 3538.9 6.23992e-10 -166.881 3654.18 6.121e-10 -218.715 3769.46 6.06904e-10 -236.554 3884.73 5.94211e-10 -230.698 4000.01 5.87224e-10 -208.151 4115.29 5.80787e-10 -173.845 4230.56 5.87678e-10 -188.801 4153.56 5.31439e-10 -187.402 4076.56 4.77278e-10 -171.953 3999.56 4.34387e-10 -144.232 3922.56 4.01183e-10 -105.63 3845.56 3.631e-10 -57.2555 3768.56 3.40592e-10 9.28862e-13 3691.56 3.12843e-10 3148.54 102.656 1.08582e-09 3254.56 -60.0217 1.24277e-09 3360.57 -153.473 1.36323e-09 3466.59 -201.142 1.46066e-09 3572.6 -217.547 1.5325e-09 3678.62 -212.162 1.59729e-09 3784.63 -191.427 1.64594e-09 3890.64 -159.877 1.69018e-09 3819.83 -173.631 1.76402e-09 3749.02 -172.345 1.83258e-09 3678.2 -158.137 1.88386e-09 3607.39 -132.643 1.93372e-09 3536.58 -97.1426 1.98216e-09 3465.77 -52.6551 2.01416e-09 3394.95 -2.13557e-13 2.05037e-09 2910.59 299.826 9.71962e-10 3059.33 233.72 1.133e-09 3201.49 207.436 1.25379e-09 3338.7 207.665 1.351e-09 3472.06 225.684 1.42385e-09 3602.28 255.544 1.48325e-09 3729.89 293.055 1.53311e-09 3855.28 335.186 1.56932e-09 3803.48 313.766 1.64587e-09 3750.83 302.858 1.70059e-09 3697.51 300.853 1.75609e-09 3643.69 306.487 1.79401e-09 3589.47 318.748 1.83073e-09 3534.97 336.818 1.86085e-09 3480.26 360.03 1.88646e-09 2695.2 519.567 8.92016e-10 2867.6 522.911 1.05167e-09 3030.66 548.166 1.17763e-09 3186.34 587.443 1.27261e-09 3335.97 635.374 1.34228e-09 3480.51 688.193 1.40293e-09 3620.64 743.188 1.44779e-09 3756.89 798.371 1.48868e-09 3718.16 773.597 1.55866e-09 3678 755.855 1.61001e-09 3636.71 743.965 1.65575e-09 3594.5 736.989 1.69671e-09 3551.57 734.167 1.72564e-09 3508.05 734.882 1.74788e-09 3464.08 738.622 1.76089e-09 2489.36 748.849 8.3848e-10 2673.63 804.026 9.99792e-10 2847.48 869.63 1.12257e-09 3012.7 940.926 1.21799e-09 3170.58 1014.62 1.29125e-09 3322.06 1088.35 1.34714e-09 3467.84 1160.42 1.39099e-09 3608.44 1229.57 1.42364e-09 3578.22 1203.98 1.48959e-09 3546.22 1182.77 1.54888e-09 3512.77 1165.11 1.59065e-09 3478.12 1150.34 1.62277e-09 3442.46 1137.92 1.6485e-09 3405.97 1127.43 1.6605e-09 3368.78 1118.49 1.67071e-09 2285.89 980.51 7.99359e-10 2473.99 1075.21 9.61432e-10 2651.4 1172.74 1.0861e-09 2819.62 1270.33 1.18022e-09 2979.76 1366.01 1.25277e-09 3132.62 1458.41 1.30699e-09 3278.84 1546.52 1.34778e-09 3418.91 1629.6 1.37534e-09 3393.79 1604.57 1.44944e-09 3366.77 1581.9 1.50341e-09 3338.14 1561.06 1.54132e-09 3308.12 1541.62 1.57293e-09 3276.92 1523.23 1.59113e-09 3244.69 1505.62 1.59921e-09 3211.57 1488.54 1.60479e-09 2080.68 1210.42 7.73851e-10 2266.49 1335.56 9.37909e-10 2441.91 1458.39 1.06466e-09 2608.08 1577.45 1.1606e-09 2765.83 1691.73 1.23415e-09 2915.8 1800.49 1.28809e-09 3058.5 1903.24 1.32802e-09 3194.33 1999.63 1.35528e-09 3171.87 1975.76 1.42855e-09 3147.57 1952.74 1.48214e-09 3121.67 1930.27 1.52252e-09 3094.36 1908.12 1.55241e-09 3065.79 1886.08 1.57048e-09 3036.09 1864.02 1.57997e-09 3005.39 1841.79 1.58203e-09 1871.34 1436.21 7.59374e-10 2049.68 1584.68 9.28439e-10 2218.48 1727.39 1.05773e-09 2378.41 1863.79 1.15711e-09 2530 1993.51 1.23111e-09 2673.67 2116.32 1.28664e-09 2809.75 2232.1 1.32621e-09 2938.53 2340.76 1.35249e-09 2917.02 2318.13 1.4287e-09 2893.95 2295.24 1.48702e-09 2869.47 2271.98 1.52988e-09 2843.7 2248.25 1.5587e-09 2816.74 2224 1.57723e-09 2788.68 2199.17 1.58705e-09 2759.61 2173.71 1.58696e-09 1656.65 1656.65 7.54866e-10 1822.62 1822.62 9.30212e-10 1980.52 1980.52 1.06466e-09 2130.49 2130.49 1.16752e-09 2272.66 2272.66 1.24503e-09 2407.16 2407.16 1.30241e-09 2534.13 2534.13 1.34334e-09 2653.71 2653.71 1.37094e-09 2631.99 2631.99 1.45352e-09 2609.23 2609.23 1.51632e-09 2585.46 2585.46 1.56245e-09 2560.7 2560.7 1.59453e-09 2535 2535 1.61472e-09 2508.36 2508.36 1.62475e-09 2480.84 2480.84 1.62634e-09 1436.21 1871.34 6.94227e-10 1584.68 2049.68 8.47142e-10 1727.39 2218.48 9.64175e-10 1863.79 2378.41 1.05262e-09 1993.51 2530 1.121e-09 2116.32 2673.67 1.17072e-09 2232.1 2809.75 1.20602e-09 2340.76 2938.53 1.23035e-09 2318.13 2917.02 1.29836e-09 2295.24 2893.95 1.34951e-09 2271.98 2869.47 1.38741e-09 2248.25 2843.7 1.4127e-09 2224 2816.74 1.42858e-09 2199.17 2788.68 1.43576e-09 2173.71 2759.61 1.43677e-09 1210.42 2080.68 6.41493e-10 1335.56 2266.49 7.71821e-10 1458.39 2441.91 8.7424e-10 1577.45 2608.08 9.51099e-10 1691.73 2765.83 1.00699e-09 1800.49 2915.8 1.05048e-09 1903.24 3058.5 1.08162e-09 1999.63 3194.33 1.10026e-09 1975.76 3171.87 1.15569e-09 1952.74 3147.57 1.19745e-09 1930.27 3121.67 1.22717e-09 1908.12 3094.36 1.24704e-09 1886.08 3065.79 1.26028e-09 1864.02 3036.09 1.2662e-09 1841.79 3005.39 1.26642e-09 980.51 2285.89 5.96251e-10 1075.21 2473.99 7.0603e-10 1172.74 2651.4 7.8957e-10 1270.33 2819.62 8.53637e-10 1366.01 2979.76 9.02985e-10 1458.41 3132.62 9.40381e-10 1546.52 3278.84 9.66019e-10 1629.6 3418.91 9.85283e-10 1604.57 3393.79 1.02373e-09 1581.9 3366.77 1.05611e-09 1561.06 3338.14 1.08251e-09 1541.62 3308.12 1.09686e-09 1523.23 3276.92 1.10705e-09 1505.62 3244.69 1.11609e-09 1488.54 3211.57 1.11466e-09 748.849 2489.36 5.5657e-10 804.026 2673.63 6.44158e-10 869.63 2847.48 7.12654e-10 940.926 3012.7 7.6158e-10 1014.62 3170.58 8.03475e-10 1088.35 3322.06 8.30246e-10 1160.42 3467.84 8.50271